      -----------------------------------------------------------      
     |                   =====================                   |     
     |                           x T B                           |     
     |                   =====================                   |     
     |                         S. Grimme                         |     
     |          Mulliken Center for Theoretical Chemistry        |     
     |                    University of Bonn                     |     
      -----------------------------------------------------------      

   * xtb version 6.6.0 (2ccbbd7) compiled by 'conda@6fe65c42fc39' on 2023-02-10

   xtb is free software: you can redistribute it and/or modify it under
   the terms of the GNU Lesser General Public License as published by
   the Free Software Foundation, either version 3 of the License, or
   (at your option) any later version.
   
   xtb is distributed in the hope that it will be useful,
   but WITHOUT ANY WARRANTY; without even the implied warranty of
   MERCHANTABILITY or FITNESS FOR A PARTICULAR PURPOSE.  See the
   GNU Lesser General Public License for more details.
   
   Cite this work as:
   * C. Bannwarth, E. Caldeweyher, S. Ehlert, A. Hansen, P. Pracht,
     J. Seibert, S. Spicher, S. Grimme, WIREs Comput. Mol. Sci., 2020, 11,
     e01493. DOI: 10.1002/wcms.1493
   
   for GFN2-xTB:
   * C. Bannwarth, S. Ehlert and S. Grimme., J. Chem. Theory Comput., 2019,
     15, 1652-1671. DOI: 10.1021/acs.jctc.8b01176
   for GFN1-xTB:
   * S. Grimme, C. Bannwarth, P. Shushkov, J. Chem. Theory Comput., 2017,
     13, 1989-2009. DOI: 10.1021/acs.jctc.7b00118
   for GFN0-xTB:
   * P. Pracht, E. Caldeweyher, S. Ehlert, S. Grimme, ChemRxiv, 2019, preprint.
     DOI: 10.26434/chemrxiv.8326202.v1
   for GFN-FF:
   * S. Spicher and S. Grimme, Angew. Chem. Int. Ed., 2020, 59, 15665-15673.
     DOI: 10.1002/anie.202004239
   
   for ALPB and GBSA implicit solvation:
   * S. Ehlert, M. Stahn, S. Spicher, S. Grimme, J. Chem. Theory Comput.,
     2021, 17, 4250-4261. DOI: 10.1021/acs.jctc.1c00471
   
   for DFT-D4:
   * E. Caldeweyher, C. Bannwarth and S. Grimme, J. Chem. Phys., 2017,
     147, 034112. DOI: 10.1063/1.4993215
   * E. Caldeweyher, S. Ehlert, A. Hansen, H. Neugebauer, S. Spicher,
     C. Bannwarth and S. Grimme, J. Chem. Phys., 2019, 150, 154122.
     DOI: 10.1063/1.5090222
   * E. Caldeweyher, J.-M. Mewes, S. Ehlert and S. Grimme, Phys. Chem. Chem. Phys.
     2020, 22, 8499-8512. DOI: 10.1039/D0CP00502A
   
   for sTDA-xTB:
   * S. Grimme and C. Bannwarth, J. Chem. Phys., 2016, 145, 054103.
     DOI: 10.1063/1.4959605
   
   in the mass-spec context:
   * V. Asgeirsson, C. Bauer and S. Grimme, Chem. Sci., 2017, 8, 4879.
     DOI: 10.1039/c7sc00601b
   * J. Koopman and S. Grimme, ACS Omega 2019, 4, 12, 15120-15133.
     DOI: 10.1021/acsomega.9b02011
   
   for metadynamics refer to:
   * S. Grimme, J. Chem. Theory Comput., 2019, 155, 2847-2862
     DOI: 10.1021/acs.jctc.9b00143
   
   for SPH calculations refer to:
   * S. Spicher and S. Grimme, J. Chem. Theory Comput., 2021, 17, 1701-1714
     DOI: 10.1021/acs.jctc.0c01306
   
   with help from (in alphabetical order)
   P. Atkinson, C. Bannwarth, F. Bohle, G. Brandenburg, E. Caldeweyher
   M. Checinski, S. Dohm, S. Ehlert, S. Ehrlich, I. Gerasimov, C. Hölzer
   A. Katbashev, J. Koopman, C. Lavigne, S. Lehtola, F. März, M. Müller,
   F. Musil, H. Neugebauer, J. Pisarek, C. Plett, P. Pracht, F. Pultar,
   J. Seibert, P. Shushkov, S. Spicher, M. Stahn, M. Steiner, T. Strunk,
   J. Stückrath, T. Rose, and J. Unsleber
   
 * started run on 2023/07/25 at 16:06:22.069     

           -------------------------------------------------
          |                Calculation Setup                |
           -------------------------------------------------

          program call               : xtb --input xtb.inp 101803327.sdf --opt vtight --alpb water
          coordinate file            : 101803327.sdf
          omp threads                :                     8

   ID    Z sym.   atoms
    1    6 C      1-20
    2    1 H      21-42

           -------------------------------------------------
          |                 G F N 2 - x T B                 |
           -------------------------------------------------

        Reference                      10.1021/acs.jctc.8b01176
      * Hamiltonian:
        H0-scaling (s, p, d)           1.850000    2.230000    2.230000
        zeta-weighting                 0.500000
      * Dispersion:
        s8                             2.700000
        a1                             0.520000
        a2                             5.000000
        s9                             5.000000
      * Repulsion:
        kExp                           1.500000    1.000000
        rExp                           1.000000
      * Coulomb:
        alpha                          2.000000
        third order                    shell-resolved
        anisotropic                    true
        a3                             3.000000
        a5                             4.000000
        cn-shift                       1.200000
        cn-exp                         4.000000
        max-rad                        5.000000

      * Solvation model:               ALPB
        Solvent                        water
        Parameter file                 internal GFN2-xTB/ALPB
        Dielectric constant                8.0200E+01
        Reference state                gsolv [1 M gas/solution]
        Free energy shift                  1.0808E-03 Eh       6.7819E-01 kcal/mol
        Temperature                        2.9815E+02 K
        Density                            1.0000E+00 kg/L
        Solvent mass                       1.8000E+01 g/mol
        Interaction kernel             P16
        Born radius scaling (c1)           1.4744E+00
        Born radii integrator          GBOBC
        Born offset                        0.0000E+00 a0       0.0000E+00 AA
        H-bond correction              true
        Ion screening                  false
        Surface tension                    1.0000E-05 Eh       1.5569E+01 dyn/cm
        Grid points                               230 per atom
q/qsh data taken from xtbrestart
CAMM data taken from xtbrestart

          ...................................................
          :                      SETUP                      :
          :.................................................:
          :  # basis functions                 102          :
          :  # atomic orbitals                 102          :
          :  # shells                           62          :
          :  # electrons                       102          :
          :  max. iterations                   250          :
          :  Hamiltonian                  GFN2-xTB          :
          :  restarted?                       true          :
          :  GBSA solvation                   true          :
          :  PC potential                    false          :
          :  electronic temp.          300.0000000     K    :
          :  accuracy                    1.0000000          :
          :  -> integral cutoff          0.2500000E+02      :
          :  -> integral neglect         0.1000000E-07      :
          :  -> SCF convergence          0.1000000E-05 Eh   :
          :  -> wf. convergence          0.1000000E-03 e    :
          :  Broyden damping             0.4000000          :
          ...................................................

 iter      E             dE          RMSdq      gap      omega  full diag
   1    -54.9450087 -0.549450E+02  0.156E-01    3.39       0.0  T
   2    -54.9450038  0.489984E-05  0.993E-02    3.38       1.0  T
   3    -54.9448598  0.144013E-03  0.772E-02    3.39       1.0  T
   4    -54.9450528 -0.193040E-03  0.822E-03    3.38       1.9  T
   5    -54.9450547 -0.190955E-05  0.276E-03    3.38       5.6  T
   6    -54.9450547  0.279405E-08  0.134E-03    3.38      11.5  T
   7    -54.9450548 -0.319491E-07  0.379E-04    3.38      40.7  T
   8    -54.9450548 -0.220128E-08  0.204E-04    3.38      75.7  T

   *** convergence criteria satisfied after 8 iterations ***

         #    Occupation            Energy/Eh            Energy/eV
      -------------------------------------------------------------
         1        2.0000           -0.6424396             -17.4817
       ...           ...                  ...                  ...
        45        2.0000           -0.4189623             -11.4005
        46        2.0000           -0.4057176             -11.0401
        47        2.0000           -0.4026638             -10.9570
        48        2.0000           -0.4006822             -10.9031
        49        2.0000           -0.3899054             -10.6099
        50        2.0000           -0.3855557             -10.4915
        51        2.0000           -0.3761943             -10.2368 (HOMO)
        52                         -0.2518496              -6.8532 (LUMO)
        53                         -0.2342259              -6.3736
        54                         -0.1833810              -4.9901
        55                         -0.1499088              -4.0792
        56                         -0.1234057              -3.3580
       ...                                ...                  ...
       102                          1.4121716              38.4271
      -------------------------------------------------------------
                  HL-Gap            0.1243447 Eh            3.3836 eV
             Fermi-level           -0.3140219 Eh           -8.5450 eV

 SCC (total)                   0 d,  0 h,  0 min,  0.505 sec
 SCC setup                      ...        0 min,  0.031 sec (  6.194%)
 Dispersion                     ...        0 min,  0.009 sec (  1.791%)
 classical contributions        ...        0 min,  0.019 sec (  3.715%)
 integral evaluation            ...        0 min,  0.004 sec (  0.722%)
 iterations                     ...        0 min,  0.327 sec ( 64.726%)
 molecular gradient             ...        0 min,  0.112 sec ( 22.086%)
 printout                       ...        0 min,  0.004 sec (  0.752%)

         :::::::::::::::::::::::::::::::::::::::::::::::::::::
         ::                     SUMMARY                     ::
         :::::::::::::::::::::::::::::::::::::::::::::::::::::
         :: total energy             -54.023254373841 Eh    ::
         :: total w/o Gsasa/hb       -54.020903492816 Eh    ::
         :: gradient norm              0.043617767477 Eh/a0 ::
         :: HOMO-LUMO gap              3.383591257995 eV    ::
         ::.................................................::
         :: SCC energy               -54.945054774996 Eh    ::
         :: -> isotropic ES            0.005466060761 Eh    ::
         :: -> anisotropic ES          0.009708682107 Eh    ::
         :: -> anisotropic XC          0.035037003816 Eh    ::
         :: -> dispersion             -0.043194979147 Eh    ::
         :: -> Gsolv                  -0.002981234611 Eh    ::
         ::    -> Gelec               -0.000630353586 Eh    ::
         ::    -> Gsasa               -0.002744640857 Eh    ::
         ::    -> Ghb                 -0.000686999865 Eh    ::
         ::    -> Gshift               0.001080759698 Eh    ::
         :: repulsion energy           0.921838018551 Eh    ::
         :: add. restraining           0.000000000000 Eh    ::
         :: total charge               0.000000000000 e     ::
         :::::::::::::::::::::::::::::::::::::::::::::::::::::

      ----------------------------------------------------------- 
     |                   =====================                   |
     |                        A N C O P T                        |
     |                   =====================                   |
     |               Approximate Normal Coordinate               |
     |                Rational Function Optimizer                |
      ----------------------------------------------------------- 

          ...................................................
          :                      SETUP                      :
          :.................................................:
          :   optimization level         verytight          :
          :   max. optcycles                   840          :
          :   ANC micro-cycles                  20          :
          :   degrees of freedom               120          :
          :.................................................:
          :   RF solver                   davidson          :
          :   write xtbopt.log                true          :
          :   linear?                        false          :
          :   energy convergence         0.1000000E-06 Eh   :
          :   grad. convergence          0.2000000E-03 Eh/α :
          :   maxmium RF displ.          1.0000000          :
          :   Hlow (freq-cutoff)         0.1000000E-01      :
          :   Hmax (freq-cutoff)         5.0000000          :
          :   S6 in model hess.         20.0000000          :
          ...................................................

generating ANC from model Hessian ...
Using Lindh-Hessian (1995)
 Shifting diagonal of input Hessian by    9.8946022100914570E-003
 Lowest  eigenvalues of input Hessian
    0.000000    0.000000    0.000000    0.000000    0.000000    0.000000
    0.010000    0.010139    0.010148    0.012022    0.013624    0.014375
    0.014936    0.018529    0.019333    0.020055    0.020162    0.022218
 Highest eigenvalues
    1.595567    1.833088    1.868296    1.947667    1.998533    2.578777


........................................................................
.............................. CYCLE    1 ..............................
........................................................................

 iter      E             dE          RMSdq      gap      omega  full diag
   1    -54.9450548 -0.549451E+02  0.102E-04    3.38       0.0  T
   2    -54.9450548 -0.460787E-10  0.722E-05    3.38     213.7  T
   3    -54.9450548 -0.406430E-11  0.492E-05    3.38     313.4  T
     SCC iter.                  ...        0 min,  0.123 sec
     gradient                   ...        0 min,  0.136 sec
 * total energy  :   -54.0232544 Eh     change       -0.3314327E-09 Eh
   gradient norm :     0.0436175 Eh/α   predicted     0.0000000E+00 (-100.00%)
   displ. norm   :     0.2278513 α      lambda       -0.4938630E-02
   maximum displ.:     0.1059719 α      in ANC's #8, #43, #58, ...

........................................................................
.............................. CYCLE    2 ..............................
........................................................................

 iter      E             dE          RMSdq      gap      omega  full diag
   1    -54.9771072 -0.549771E+02  0.120E-01    3.39       0.0  T
   2    -54.9771057  0.156629E-05  0.754E-02    3.39       1.0  T
   3    -54.9770036  0.102093E-03  0.588E-02    3.39       1.0  T
   4    -54.9771272 -0.123614E-03  0.546E-03    3.39       2.8  T
   5    -54.9771280 -0.806406E-06  0.194E-03    3.39       8.0  T
   6    -54.9771280 -0.110397E-07  0.976E-04    3.39      15.8  T
   7    -54.9771280 -0.113623E-07  0.300E-04    3.39      51.5  T
     SCC iter.                  ...        0 min,  0.315 sec
     gradient                   ...        0 min,  0.161 sec
 * total energy  :   -54.0262874 Eh     change       -0.3033056E-02 Eh
   gradient norm :     0.0121420 Eh/α   predicted    -0.2598199E-02 ( -14.34%)
   displ. norm   :     0.1672008 α      lambda       -0.8522856E-03
   maximum displ.:     0.1150401 α      in ANC's #8, #9, #43, ...

........................................................................
.............................. CYCLE    3 ..............................
........................................................................

 iter      E             dE          RMSdq      gap      omega  full diag
   1    -54.9936381 -0.549936E+02  0.569E-02    3.39       0.0  T
   2    -54.9936386 -0.514176E-06  0.352E-02    3.39       1.0  T
   3    -54.9936193  0.193523E-04  0.263E-02    3.39       1.0  T
   4    -54.9936428 -0.234971E-04  0.326E-03    3.39       4.7  T
   5    -54.9936431 -0.325183E-06  0.980E-04    3.39      15.7  T
   6    -54.9936431 -0.610804E-08  0.587E-04    3.39      26.3  T
     SCC iter.                  ...        0 min,  0.261 sec
     gradient                   ...        0 min,  0.120 sec
 * total energy  :   -54.0267418 Eh     change       -0.4544006E-03 Eh
   gradient norm :     0.0039263 Eh/α   predicted    -0.4380626E-03 (  -3.60%)
   displ. norm   :     0.0702610 α      lambda       -0.9871671E-04
   maximum displ.:     0.0548461 α      in ANC's #8, #9, #5, ...

........................................................................
.............................. CYCLE    4 ..............................
........................................................................

 iter      E             dE          RMSdq      gap      omega  full diag
   1    -54.9946003 -0.549946E+02  0.204E-02    3.38       0.0  T
   2    -54.9946004 -0.991345E-07  0.125E-02    3.38       1.2  T
   3    -54.9945985  0.191798E-05  0.793E-03    3.38       1.9  T
   4    -54.9946006 -0.214883E-05  0.111E-03    3.38      14.0  T
   5    -54.9946007 -0.515181E-07  0.261E-04    3.38      59.0  T
   6    -54.9946007 -0.284331E-09  0.144E-04    3.38     107.4  T
     SCC iter.                  ...        0 min,  0.267 sec
     gradient                   ...        0 min,  0.120 sec
 * total energy  :   -54.0268066 Eh     change       -0.6479848E-04 Eh
   gradient norm :     0.0019918 Eh/α   predicted    -0.4961450E-04 ( -23.43%)
   displ. norm   :     0.0665100 α      lambda       -0.3043712E-04
   maximum displ.:     0.0497588 α      in ANC's #8, #9, #5, ...

........................................................................
.............................. CYCLE    5 ..............................
........................................................................

 iter      E             dE          RMSdq      gap      omega  full diag
   1    -54.9937684 -0.549938E+02  0.191E-02    3.37       0.0  T
   2    -54.9937686 -0.170456E-06  0.117E-02    3.37       1.3  T
   3    -54.9937682  0.328147E-06  0.310E-03    3.37       5.0  T
   4    -54.9937686 -0.402107E-06  0.476E-04    3.37      32.4  T
   5    -54.9937687 -0.253401E-08  0.293E-04    3.37      52.7  T
     SCC iter.                  ...        0 min,  0.189 sec
     gradient                   ...        0 min,  0.099 sec
 * total energy  :   -54.0268216 Eh     change       -0.1498793E-04 Eh
   gradient norm :     0.0015674 Eh/α   predicted    -0.1525265E-04 (   1.77%)
   displ. norm   :     0.0169041 α      lambda       -0.4421469E-05
   maximum displ.:     0.0128714 α      in ANC's #8, #17, #9, ...

........................................................................
.............................. CYCLE    6 ..............................
........................................................................

 iter      E             dE          RMSdq      gap      omega  full diag
   1    -54.9939385 -0.549939E+02  0.502E-03    3.38       0.0  T
   2    -54.9939385 -0.234339E-07  0.314E-03    3.38       4.9  T
   3    -54.9939385  0.342447E-07  0.112E-03    3.38      13.8  T
   4    -54.9939385 -0.437109E-07  0.150E-04    3.38     103.0  T
   5    -54.9939385 -0.471516E-09  0.881E-05    3.38     175.2  T
     SCC iter.                  ...        0 min,  0.252 sec
     gradient                   ...        0 min,  0.118 sec
 * total energy  :   -54.0268252 Eh     change       -0.3564090E-05 Eh
   gradient norm :     0.0002393 Eh/α   predicted    -0.2211593E-05 ( -37.95%)
   displ. norm   :     0.0166378 α      lambda        0.3426852E-05
   maximum displ.:     0.0126353 α      in ANC's #8, #17, #9, ...

........................................................................
.............................. CYCLE    7 ..............................
........................................................................

 iter      E             dE          RMSdq      gap      omega  full diag
   1    -54.9941140 -0.549941E+02  0.500E-03    3.38       0.0  T
   2    -54.9941140 -0.226173E-07  0.312E-03    3.38       4.9  T
   3    -54.9941139  0.397650E-07  0.124E-03    3.38      12.5  T
   4    -54.9941140 -0.484925E-07  0.239E-04    3.38      64.4  T
   5    -54.9941140 -0.203746E-08  0.968E-05    3.38     159.5  T
     SCC iter.                  ...        0 min,  0.265 sec
     gradient                   ...        0 min,  0.119 sec
 * total energy  :   -54.0268226 Eh     change        0.2560455E-05 Eh
   gradient norm :     0.0013342 Eh/α   predicted     0.1712128E-05 ( -33.13%)
   displ. norm   :     0.0168259 α      lambda       -0.3759856E-05
   maximum displ.:     0.0119733 α      in ANC's #8, #9, #17, ...

........................................................................
.............................. CYCLE    8 ..............................
........................................................................

 iter      E             dE          RMSdq      gap      omega  full diag
   1    -54.9940537 -0.549941E+02  0.531E-03    3.38       0.0  T
   2    -54.9940538 -0.165419E-07  0.328E-03    3.38       4.7  T
   3    -54.9940537  0.652155E-07  0.150E-03    3.38      10.3  T
   4    -54.9940538 -0.726072E-07  0.324E-04    3.38      47.6  T
   5    -54.9940538 -0.437531E-08  0.853E-05    3.38     180.8  T
     SCC iter.                  ...        0 min,  0.208 sec
     gradient                   ...        0 min,  0.103 sec
 * total energy  :   -54.0268254 Eh     change       -0.2744206E-05 Eh
   gradient norm :     0.0001601 Eh/α   predicted    -0.1881801E-05 ( -31.43%)
   displ. norm   :     0.0055843 α      lambda       -0.3561756E-06
   maximum displ.:     0.0029034 α      in ANC's #5, #22, #8, ...

........................................................................
.............................. CYCLE    9 ..............................
........................................................................

 iter      E             dE          RMSdq      gap      omega  full diag
   1    -54.9940075 -0.549940E+02  0.290E-03    3.38       0.0  T
   2    -54.9940075 -0.146773E-08  0.175E-03    3.38       8.8  T
   3    -54.9940075  0.275806E-08  0.293E-04    3.38      52.6  T
   4    -54.9940075 -0.340160E-08  0.738E-05    3.38     209.0  T
     SCC iter.                  ...        0 min,  0.186 sec
     gradient                   ...        0 min,  0.144 sec
 * total energy  :   -54.0268253 Eh     change        0.6816220E-07 Eh
   gradient norm :     0.0002546 Eh/α   predicted    -0.1800602E-06 (-364.16%)
   displ. norm   :     0.0031174 α      lambda       -0.2904596E-06
   maximum displ.:     0.0017325 α      in ANC's #8, #22, #4, ...

........................................................................
.............................. CYCLE   10 ..............................
........................................................................

 iter      E             dE          RMSdq      gap      omega  full diag
   1    -54.9940369 -0.549940E+02  0.164E-03    3.38       0.0  T
   2    -54.9940369 -0.559055E-09  0.989E-04    3.38      15.6  T
   3    -54.9940369  0.185139E-08  0.249E-04    3.38      62.1  T
     SCC iter.                  ...        0 min,  0.115 sec
     gradient                   ...        0 min,  0.134 sec
 * total energy  :   -54.0268256 Eh     change       -0.2571335E-06 Eh
   gradient norm :     0.0000605 Eh/α   predicted    -0.1559513E-06 ( -39.35%)
   displ. norm   :     0.0030432 α      lambda       -0.4868469E-07
   maximum displ.:     0.0017147 α      in ANC's #5, #4, #1, ...

........................................................................
.............................. CYCLE   11 ..............................
........................................................................

 iter      E             dE          RMSdq      gap      omega  full diag
   1    -54.9940184 -0.549940E+02  0.117E-03    3.38       0.0  T
   2    -54.9940184 -0.108074E-09  0.689E-04    3.38      22.4  T
   3    -54.9940184  0.195220E-08  0.221E-04    3.38      69.9  T
     SCC iter.                  ...        0 min,  0.116 sec
     gradient                   ...        0 min,  0.120 sec
 * total energy  :   -54.0268256 Eh     change       -0.5499997E-07 Eh
   gradient norm :     0.0000554 Eh/α   predicted    -0.2487765E-07 ( -54.77%)
   displ. norm   :     0.0086073 α      lambda       -0.8982898E-07
   maximum displ.:     0.0049377 α      in ANC's #5, #4, #1, ...

   *** GEOMETRY OPTIMIZATION CONVERGED AFTER 11 ITERATIONS ***

------------------------------------------------------------------------
 total energy gain   :        -0.0035712 Eh       -2.2410 kcal/mol
 total RMSD          :         0.0725333 a0        0.0384 Å
 total power (kW/mol):        -0.8523889 (step)   -1.7625 (real)
------------------------------------------------------------------------

 ANCopt (total)                0 d,  0 h,  0 min,  5.320 sec
 optimizer setup                ...        0 min,  0.000 sec (  0.006%)
 model hessian                  ...        0 min,  0.167 sec (  3.144%)
 ANC generation                 ...        0 min,  0.005 sec (  0.100%)
 coordinate transformation      ...        0 min,  0.034 sec (  0.635%)
 single point calculation       ...        0 min,  5.000 sec ( 93.990%)
 optimization log               ...        0 min,  0.008 sec (  0.154%)
 hessian update                 ...        0 min,  0.091 sec (  1.705%)
 rational function              ...        0 min,  0.003 sec (  0.063%)

================
 final structure:
================
 xtb: 6.6.0 (2ccbbd7)
          07252316063D

 42 45  0     0  0            999 V2000
   -1.3852   -0.2003   -0.0357 C   0  0  0  0  0  0  0  0  0  0  0  0
   -2.3152    0.8302   -0.6921 C   0  0  0  0  0  0  0  0  0  0  0  0
   -3.7615    0.3465   -0.5980 C   0  0  0  0  0  0  0  0  0  0  0  0
   -3.9016   -0.9926   -1.3212 C   0  0  0  0  0  0  0  0  0  0  0  0
   -2.9817   -2.0219   -0.6652 C   0  0  0  0  0  0  0  0  0  0  0  0
   -1.5324   -1.5474   -0.7593 C   0  0  0  0  0  0  0  0  0  0  0  0
   -3.3705   -2.1930    0.8030 C   0  0  0  0  0  0  0  0  0  0  0  0
   -3.2305   -0.8526    1.5238 C   0  0  0  0  0  0  0  0  0  0  0  0
   -1.7821   -0.3737    1.4381 C   0  0  0  0  0  0  0  0  0  0  0  0
   -4.1507    0.1781    0.8704 C   0  0  0  0  0  0  0  0  0  0  0  0
   -0.0077    0.2535   -0.1218 C   0  0  0  0  0  0  0  0  0  0  0  0
    1.1333    0.6298   -0.1928 C   0  0  0  0  0  0  0  0  0  0  0  0
    2.4747    1.0763   -0.2784 C   0  0  0  0  0  0  0  0  0  0  0  0
    3.4959    0.3436    0.3199 C   0  0  0  0  0  0  0  0  0  0  0  0
    4.8221    0.7643    0.2481 C   0  0  0  0  0  0  0  0  0  0  0  0
    5.1073    1.9451   -0.4412 C   0  0  0  0  0  0  0  0  0  0  0  0
    4.0961    2.6760   -1.0371 C   0  0  0  0  0  0  0  0  0  0  0  0
    2.7819    2.2529   -0.9625 C   0  0  0  0  0  0  0  0  0  0  0  0
    5.8478   -0.0471    0.8951 C   0  0  0  0  0  0  0  0  0  0  0  0
    7.1523    0.1973    0.9281 C   0  0  0  0  0  0  0  0  0  0  0  0
   -2.2066    1.7937   -0.1882 H   0  0  0  0  0  0  0  0  0  0  0  0
   -2.0304    0.9654   -1.7383 H   0  0  0  0  0  0  0  0  0  0  0  0
   -4.4191    1.0865   -1.0680 H   0  0  0  0  0  0  0  0  0  0  0  0
   -4.9375   -1.3352   -1.2709 H   0  0  0  0  0  0  0  0  0  0  0  0
   -3.6375   -0.8758   -2.3748 H   0  0  0  0  0  0  0  0  0  0  0  0
   -3.0790   -2.9824   -1.1837 H   0  0  0  0  0  0  0  0  0  0  0  0
   -0.8648   -2.2823   -0.3033 H   0  0  0  0  0  0  0  0  0  0  0  0
   -1.2398   -1.4337   -1.8059 H   0  0  0  0  0  0  0  0  0  0  0  0
   -2.7252   -2.9380    1.2742 H   0  0  0  0  0  0  0  0  0  0  0  0
   -4.4009   -2.5477    0.8753 H   0  0  0  0  0  0  0  0  0  0  0  0
   -3.5066   -0.9734    2.5775 H   0  0  0  0  0  0  0  0  0  0  0  0
   -1.1167   -1.0984    1.9132 H   0  0  0  0  0  0  0  0  0  0  0  0
   -1.6680    0.5786    1.9615 H   0  0  0  0  0  0  0  0  0  0  0  0
   -5.1892   -0.1521    0.9437 H   0  0  0  0  0  0  0  0  0  0  0  0
   -4.0653    1.1352    1.3900 H   0  0  0  0  0  0  0  0  0  0  0  0
    3.2478   -0.5668    0.8476 H   0  0  0  0  0  0  0  0  0  0  0  0
    6.1247    2.2952   -0.5129 H   0  0  0  0  0  0  0  0  0  0  0  0
    4.3347    3.5868   -1.5666 H   0  0  0  0  0  0  0  0  0  0  0  0
    1.9902    2.8216   -1.4270 H   0  0  0  0  0  0  0  0  0  0  0  0
    5.4687   -0.9333    1.3896 H   0  0  0  0  0  0  0  0  0  0  0  0
    7.8312   -0.4664    1.4347 H   0  0  0  0  0  0  0  0  0  0  0  0
    7.5973    1.0575    0.4588 H   0  0  0  0  0  0  0  0  0  0  0  0
  1  2  1  0  0  0  0
  1 11  1  0  0  0  0
  2  3  1  0  0  0  0
  2 21  1  0  0  0  0
  2 22  1  0  0  0  0
  3  4  1  0  0  0  0
  3 23  1  0  0  0  0
  4  5  1  0  0  0  0
  4 24  1  0  0  0  0
  4 25  1  0  0  0  0
  5  6  1  0  0  0  0
  5  7  1  0  0  0  0
  5 26  1  0  0  0  0
  6  1  1  0  0  0  0
  6 27  1  0  0  0  0
  6 28  1  0  0  0  0
  7  8  1  0  0  0  0
  7 29  1  0  0  0  0
  7 30  1  0  0  0  0
  8  9  1  0  0  0  0
  8 10  1  0  0  0  0
  8 31  1  0  0  0  0
  9  1  1  0  0  0  0
  9 32  1  0  0  0  0
  9 33  1  0  0  0  0
 10  3  1  0  0  0  0
 10 34  1  0  0  0  0
 10 35  1  0  0  0  0
 11 12  3  0  0  0  0
 12 13  1  0  0  0  0
 13 14  2  0  0  0  0
 14 15  1  0  0  0  0
 14 36  1  0  0  0  0
 15 16  2  0  0  0  0
 15 19  1  0  0  0  0
 16 17  1  0  0  0  0
 16 37  1  0  0  0  0
 17 18  2  0  0  0  0
 17 38  1  0  0  0  0
 18 13  1  0  0  0  0
 18 39  1  0  0  0  0
 19 20  2  0  0  0  0
 19 40  1  0  0  0  0
 20 41  1  0  0  0  0
 20 42  1  0  0  0  0
M  END
$$$$

 Bond Distances (Angstroems)
 ---------------------------
C1-C2=1.5355         C1-C6=1.5362         C1-C9=1.5361         C1-C11=1.4529        C2-C1=1.5355         C2-C3=1.5280         
C2-H21=1.0927        C2-H22=1.0927        C3-C2=1.5280         C3-C4=1.5284         C3-C10=1.5284        C3-H23=1.0959        
C4-C3=1.5284         C4-C5=1.5284         C4-H24=1.0922        C4-H25=1.0924        C5-C4=1.5284         C5-C6=1.5279         
C5-C7=1.5284         C5-H26=1.0959        C6-C1=1.5362         C6-C5=1.5279         C6-H27=1.0926        C6-H28=1.0926        
C7-C5=1.5284         C7-C8=1.5284         C7-H29=1.0924        C7-H30=1.0922        C8-C7=1.5284         C8-C9=1.5279         
C8-C10=1.5284        C8-H31=1.0959        C9-C1=1.5361         C9-C8=1.5279         C9-H32=1.0926        C9-H33=1.0926        
C10-C3=1.5284        C10-C8=1.5284        C10-H34=1.0922       C10-H35=1.0924       C11-C1=1.4529        C11-C12=1.2036       
C12-C11=1.2036       C12-C13=1.4163       C13-C12=1.4163       C13-C14=1.3920       C13-C18=1.3952       C14-C13=1.3920       
C14-C15=1.3932       C14-H36=1.0811       C15-C14=1.3932       C15-C16=1.3967       C15-C19=1.4591       C16-C15=1.3967       
C16-C17=1.3827       C16-H37=1.0784       C17-C16=1.3827       C17-C18=1.3826       C17-H38=1.0802       C18-C13=1.3952       
C18-C17=1.3826       C18-H39=1.0798       C19-C15=1.4591       C19-C20=1.3276       C19-H40=1.0834       C20-C19=1.3276       
C20-H41=1.0761       C20-H42=1.0762       H21-C2=1.0927        H22-C2=1.0927        H23-C3=1.0959        H24-C4=1.0922        
H25-C4=1.0924        H26-C5=1.0959        H27-C6=1.0926        H28-C6=1.0926        H29-C7=1.0924        H30-C7=1.0922        
H31-C8=1.0959        H32-C9=1.0926        H33-C9=1.0926        H34-C10=1.0922       H35-C10=1.0924       H36-C14=1.0811       
H37-C16=1.0784       H38-C17=1.0802       H39-C18=1.0798       H40-C19=1.0834       H41-C20=1.0761       H42-C20=1.0762       
 C  H  Rav=1.0887 sigma=0.0067  Rmin=1.0761  Rmax=1.0959    22
 C  C  Rav=1.4593 sigma=0.0869  Rmin=1.2036  Rmax=1.5362    23

 selected bond angles (degree)
 --------------------
C6-C1-C2=109.22                C9-C1-C2=109.23                C9-C1-C6=109.16                C11-C1-C2=109.83               
C11-C1-C6=109.68               C11-C1-C9=109.70               C3-C2-C1=109.54                H21-C2-C1=109.54               
H21-C2-C3=110.17               H22-C2-C1=109.54               H22-C2-C3=110.17               H22-C2-H21=107.85              
C4-C3-C2=109.57                C10-C3-C2=109.58               C10-C3-C4=109.56               H23-C3-C2=109.13               
H23-C3-C4=109.49               H23-C3-C10=109.49              C5-C4-C3=109.37                H24-C4-C3=109.87               
H24-C4-C5=109.87               H25-C4-C3=109.91               H25-C4-C5=109.90               H25-C4-H24=107.89              
C6-C5-C4=109.60                C7-C5-C4=109.55                C7-C5-C6=109.59                H26-C5-C4=109.49               
H26-C5-C6=109.10               H26-C5-C7=109.50               C5-C6-C1=109.52                H27-C6-C1=109.56               
H27-C6-C5=110.18               H28-C6-C1=109.53               H28-C6-C5=110.20               H28-C6-H27=107.83              
C8-C7-C5=109.36                H29-C7-C5=109.91               H29-C7-C8=109.91               H30-C7-C5=109.88               
H30-C7-C8=109.88               H30-C7-H29=107.89              C9-C8-C7=109.59                C10-C8-C7=109.55               
C10-C8-C9=109.59               H31-C8-C7=109.50               H31-C8-C9=109.10               H31-C8-C10=109.49              
C8-C9-C1=109.52                H32-C9-C1=109.55               H32-C9-C8=110.18               H33-C9-C1=109.53               
H33-C9-C8=110.20               H33-C9-H32=107.83              C8-C10-C3=109.38               H34-C10-C3=109.87              
H34-C10-C8=109.87              H35-C10-C3=109.91              H35-C10-C8=109.90              H35-C10-H34=107.90             

 selected dihedral angles (degree)
 ---------------------------------
C3-C2-C1-C6= 59.67            C3-C2-C1-C9=300.35            C3-C2-C1-C11=179.99           H21-C2-C1-C6=180.62           
H21-C2-C1-C9= 61.30           H21-C2-C1-C11=300.94          H22-C2-C1-C6=298.72           H22-C2-C1-C9=179.40           
H22-C2-C1-C11= 59.05          C4-C3-C2-C1=299.88            C4-C3-C2-H21=179.31           C4-C3-C2-H22= 60.44           
C10-C3-C2-C1= 60.11           C10-C3-C2-H21=299.55          C10-C3-C2-H22=180.67          H23-C3-C2-C1=179.99           
H23-C3-C2-H21= 59.43          H23-C3-C2-H22=300.55          C5-C4-C3-C2= 60.24            C5-C4-C3-C10=299.99           
C5-C4-C3-H23=179.90           H24-C4-C3-C2=180.92           H24-C4-C3-C10= 60.67          H24-C4-C3-H23=300.58          
H25-C4-C3-C2=299.50           H25-C4-C3-C10=179.25          H25-C4-C3-H23= 59.16          C6-C5-C4-C3=299.76            
C6-C5-C4-H24=179.08           C6-C5-C4-H25= 60.50           C7-C5-C4-C3= 60.03            C7-C5-C4-H24=299.35           
C7-C5-C4-H25=180.77           H26-C5-C4-C3=180.13           H26-C5-C4-H24= 59.44          H26-C5-C4-H25=300.87          
C5-C6-C1-C2=300.36            C5-C6-C1-C9= 59.72            C5-C6-C1-C11=179.94           H27-C6-C1-C2=179.40           
H27-C6-C1-C9=298.76           H27-C6-C1-C11= 58.98          H28-C6-C1-C2= 61.32           H28-C6-C1-C9=180.68           
H28-C6-C1-C11=300.90          C1-C6-C5-C4= 60.09            C1-C6-C5-C7=299.85            C1-C6-C5-H26=179.97           
H27-C6-C5-C4=180.67           H27-C6-C5-C7= 60.42           H27-C6-C5-H26=300.55          H28-C6-C5-C4=299.54           
H28-C6-C5-C7=179.29           H28-C6-C5-H26= 59.41          C8-C7-C5-C4=299.96            C8-C7-C5-C6= 60.23            
C8-C7-C5-H26=179.86           H29-C7-C5-C4=179.22           H29-C7-C5-C6=299.49           H29-C7-C5-H26= 59.12          
H30-C7-C5-C4= 60.64           H30-C7-C5-C6=180.91           H30-C7-C5-H26=300.54          C9-C8-C7-C5=299.77            
C9-C8-C7-H29= 60.51           C9-C8-C7-H30=179.09           C10-C8-C7-C5= 60.04           C10-C8-C7-H29=180.78          
C10-C8-C7-H30=299.36          H31-C8-C7-C5=180.13           H31-C8-C7-H29=300.87          H31-C8-C7-H30= 59.45          
C8-C9-C1-C2= 59.63            C8-C9-C1-C6=300.28            C8-C9-C1-C11=180.07           H32-C9-C1-C2=180.59           
H32-C9-C1-C6= 61.24           H32-C9-C1-C11=301.03          H33-C9-C1-C2=298.67           H33-C9-C1-C6=179.32           
H33-C9-C1-C11= 59.11          C1-C9-C8-C7= 60.16            C1-C9-C8-C10=299.91           C1-C9-C8-H31=180.04           
H32-C9-C8-C7=299.58           H32-C9-C8-C10=179.34          H32-C9-C8-H31= 59.46          H33-C9-C8-C7=180.71           
H33-C9-C8-C10= 60.47          H33-C9-C8-H31=300.59          C8-C10-C3-C2=299.76           C8-C10-C3-C4= 60.01           
C8-C10-C3-H23=180.10          H34-C10-C3-C2=179.08          H34-C10-C3-C4=299.33          H34-C10-C3-H23= 59.42         
H35-C10-C3-C2= 60.50          H35-C10-C3-C4=180.75          H35-C10-C3-H23=300.84         C3-C10-C8-C7=299.98           
C3-C10-C8-C9= 60.24           C3-C10-C8-H31=179.88          H34-C10-C8-C7= 60.66          H34-C10-C8-C9=180.92          
H34-C10-C8-H31=300.56         H35-C10-C8-C7=179.23          H35-C10-C8-C9=299.50          H35-C10-C8-H31= 59.14         
           -------------------------------------------------
          |                Final Singlepoint                |
           -------------------------------------------------

          ...................................................
          :                      SETUP                      :
          :.................................................:
          :  # basis functions                 102          :
          :  # atomic orbitals                 102          :
          :  # shells                           62          :
          :  # electrons                       102          :
          :  max. iterations                   250          :
          :  Hamiltonian                  GFN2-xTB          :
          :  restarted?                      false          :
          :  GBSA solvation                   true          :
          :  PC potential                    false          :
          :  electronic temp.          300.0000000     K    :
          :  accuracy                    1.0000000          :
          :  -> integral cutoff          0.2500000E+02      :
          :  -> integral neglect         0.1000000E-07      :
          :  -> SCF convergence          0.1000000E-05 Eh   :
          :  -> wf. convergence          0.1000000E-03 e    :
          :  Broyden damping             0.4000000          :
          ...................................................

 iter      E             dE          RMSdq      gap      omega  full diag
   1    -54.9940184 -0.549940E+02  0.263E-05    3.38       0.0  T
   2    -54.9940184 -0.407141E-11  0.223E-05    3.38     692.2  T
   3    -54.9940184 -0.169962E-10  0.711E-06    3.38    2170.4  T

   *** convergence criteria satisfied after 3 iterations ***

         #    Occupation            Energy/Eh            Energy/eV
      -------------------------------------------------------------
         1        2.0000           -0.6459904             -17.5783
       ...           ...                  ...                  ...
        45        2.0000           -0.4195325             -11.4161
        46        2.0000           -0.4050397             -11.0217
        47        2.0000           -0.4023707             -10.9491
        48        2.0000           -0.4003721             -10.8947
        49        2.0000           -0.3881113             -10.5610
        50        2.0000           -0.3861500             -10.5077
        51        2.0000           -0.3750849             -10.2066 (HOMO)
        52                         -0.2509504              -6.8287 (LUMO)
        53                         -0.2321575              -6.3173
        54                         -0.1796026              -4.8872
        55                         -0.1494254              -4.0661
        56                         -0.1193213              -3.2469
       ...                                ...                  ...
       102                          1.4245231              38.7632
      -------------------------------------------------------------
                  HL-Gap            0.1241345 Eh            3.3779 eV
             Fermi-level           -0.3130177 Eh           -8.5176 eV

 SCC (total)                   0 d,  0 h,  0 min,  0.403 sec
 SCC setup                      ...        0 min,  0.019 sec (  4.603%)
 Dispersion                     ...        0 min,  0.026 sec (  6.388%)
 classical contributions        ...        0 min,  0.006 sec (  1.544%)
 integral evaluation            ...        0 min,  0.052 sec ( 12.869%)
 iterations                     ...        0 min,  0.134 sec ( 33.128%)
 molecular gradient             ...        0 min,  0.162 sec ( 40.128%)
 printout                       ...        0 min,  0.005 sec (  1.325%)

         :::::::::::::::::::::::::::::::::::::::::::::::::::::
         ::                     SUMMARY                     ::
         :::::::::::::::::::::::::::::::::::::::::::::::::::::
         :: total energy             -54.026825611533 Eh    ::
         :: total w/o Gsasa/hb       -54.024489215709 Eh    ::
         :: gradient norm              0.000055611646 Eh/a0 ::
         :: HOMO-LUMO gap              3.377872808826 eV    ::
         ::.................................................::
         :: SCC energy               -54.994018378078 Eh    ::
         :: -> isotropic ES            0.005704818140 Eh    ::
         :: -> anisotropic ES          0.009052468618 Eh    ::
         :: -> anisotropic XC          0.033665100201 Eh    ::
         :: -> dispersion             -0.043600482752 Eh    ::
         :: -> Gsolv                  -0.002980511327 Eh    ::
         ::    -> Gelec               -0.000644115503 Eh    ::
         ::    -> Gsasa               -0.002719989999 Eh    ::
         ::    -> Ghb                 -0.000697165523 Eh    ::
         ::    -> Gshift               0.001080759698 Eh    ::
         :: repulsion energy           0.967240842294 Eh    ::
         :: add. restraining           0.000000000000 Eh    ::
         :: total charge              -0.000000000000 e     ::
         :::::::::::::::::::::::::::::::::::::::::::::::::::::

           -------------------------------------------------
          |                Property Printout                |
           -------------------------------------------------

    * Orbital Energies and Occupations

         #    Occupation            Energy/Eh            Energy/eV
      -------------------------------------------------------------
         1        2.0000           -0.6459904             -17.5783
       ...           ...                  ...                  ...
        39        2.0000           -0.4344310             -11.8215
        40        2.0000           -0.4319907             -11.7551
        41        2.0000           -0.4315208             -11.7423
        42        2.0000           -0.4297621             -11.6944
        43        2.0000           -0.4254015             -11.5758
        44        2.0000           -0.4203964             -11.4396
        45        2.0000           -0.4195325             -11.4161
        46        2.0000           -0.4050397             -11.0217
        47        2.0000           -0.4023707             -10.9491
        48        2.0000           -0.4003721             -10.8947
        49        2.0000           -0.3881113             -10.5610
        50        2.0000           -0.3861500             -10.5077
        51        2.0000           -0.3750849             -10.2066 (HOMO)
        52                         -0.2509504              -6.8287 (LUMO)
        53                         -0.2321575              -6.3173
        54                         -0.1796026              -4.8872
        55                         -0.1494254              -4.0661
        56                         -0.1193213              -3.2469
        57                         -0.0530017              -1.4423
        58                          0.0379570               1.0329
        59                          0.0673967               1.8340
        60                          0.0675257               1.8375
        61                          0.0738799               2.0104
        62                          0.0978434               2.6625
       ...                                ...                  ...
       102                          1.4245231              38.7632
      -------------------------------------------------------------
                  HL-Gap            0.1241345 Eh            3.3779 eV
             Fermi-level           -0.3130177 Eh           -8.5176 eV

 * generalized Born model for continuum solvation

     #   Z     Born rad/Å   SASA/Å²    H-bond
     1   6 C        2.971     0.000    -0.000
     2   6 C        2.719     0.492    -0.000
     3   6 C        2.718     0.041    -0.000
     4   6 C        2.620     0.694    -0.000
     5   6 C        2.718     0.013    -0.000
     6   6 C        2.720     0.475    -0.000
     7   6 C        2.620     0.712    -0.000
     8   6 C        2.718     0.016    -0.000
     9   6 C        2.720     0.490    -0.000
    10   6 C        2.620     0.711    -0.000
    11   6 C        2.611     2.993    -0.000
    12   6 C        2.541    10.913    -0.001
    13   6 C        2.670     5.283    -0.000
    14   6 C        2.637     8.363    -0.001
    15   6 C        2.660     5.316    -0.001
    16   6 C        2.555     8.662    -0.001
    17   6 C        2.489     9.229    -0.001
    18   6 C        2.556     8.921    -0.001
    19   6 C        2.439     8.718    -0.001
    20   6 C        2.307    14.466    -0.001
    21   1 H        1.976    14.611    -0.025
    22   1 H        1.976    14.461    -0.024
    23   1 H        1.971    18.134    -0.030
    24   1 H        1.936    15.684    -0.026
    25   1 H        1.939    15.750    -0.026
    26   1 H        1.971    18.420    -0.031
    27   1 H        1.976    14.422    -0.024
    28   1 H        1.976    14.589    -0.025
    29   1 H        1.939    15.717    -0.026
    30   1 H        1.936    15.758    -0.026
    31   1 H        1.971    18.150    -0.030
    32   1 H        1.976    14.535    -0.024
    33   1 H        1.976    14.525    -0.024
    34   1 H        1.936    15.767    -0.026
    35   1 H        1.939    15.773    -0.026
    36   1 H        1.957    16.761    -0.028
    37   1 H        1.928    14.524    -0.024
    38   1 H        1.889    23.279    -0.039
    39   1 H        1.922    21.231    -0.036
    40   1 H        1.916    17.935    -0.030
    41   1 H        1.813    24.849    -0.042
    42   1 H        1.843    16.776    -0.028

 total SASA / Å² :      458.162

     #   Z          covCN         q      C6AA      α(0)
     1   6 C        3.913     0.041    19.825     6.328
     2   6 C        3.822    -0.057    21.577     6.610
     3   6 C        3.861    -0.013    20.768     6.481
     4   6 C        3.814    -0.063    21.689     6.628
     5   6 C        3.861    -0.013    20.767     6.481
     6   6 C        3.822    -0.056    21.567     6.609
     7   6 C        3.814    -0.063    21.689     6.628
     8   6 C        3.861    -0.013    20.767     6.481
     9   6 C        3.822    -0.056    21.568     6.609
    10   6 C        3.814    -0.063    21.689     6.629
    11   6 C        1.987    -0.053    32.464     9.201
    12   6 C        1.981    -0.064    32.788     9.247
    13   6 C        2.969     0.034    27.228     8.559
    14   6 C        2.937    -0.040    28.996     8.831
    15   6 C        2.969     0.011    27.758     8.642
    16   6 C        2.923    -0.039    28.972     8.827
    17   6 C        2.916    -0.035    28.879     8.812
    18   6 C        2.927    -0.037    28.923     8.820
    19   6 C        2.896    -0.036    28.884     8.812
    20   6 C        2.837    -0.095    30.378     9.032
    21   1 H        0.924     0.031     2.571     2.508
    22   1 H        0.924     0.031     2.572     2.508
    23   1 H        0.924     0.024     2.676     2.558
    24   1 H        0.924     0.032     2.560     2.502
    25   1 H        0.924     0.030     2.582     2.513
    26   1 H        0.924     0.024     2.670     2.555
    27   1 H        0.924     0.031     2.567     2.505
    28   1 H        0.924     0.031     2.569     2.507
    29   1 H        0.924     0.030     2.581     2.512
    30   1 H        0.924     0.032     2.559     2.501
    31   1 H        0.924     0.024     2.671     2.556
    32   1 H        0.924     0.031     2.567     2.505
    33   1 H        0.924     0.031     2.570     2.507
    34   1 H        0.924     0.032     2.560     2.502
    35   1 H        0.924     0.030     2.582     2.513
    36   1 H        0.926     0.033     2.546     2.495
    37   1 H        0.926     0.037     2.491     2.468
    38   1 H        0.926     0.034     2.534     2.490
    39   1 H        0.926     0.033     2.539     2.492
    40   1 H        0.925     0.037     2.492     2.468
    41   1 H        0.926     0.044     2.399     2.422
    42   1 H        0.926     0.044     2.399     2.422

 Mol. C6AA /au·bohr⁶  :      18312.804803
 Mol. C8AA /au·bohr⁸  :     436892.432444
 Mol. α(0) /au        :        209.277899


Wiberg/Mayer (AO) data.
largest (>0.10) Wiberg bond orders for each atom

 ---------------------------------------------------------------------------
     #   Z sym  total        # sym  WBO       # sym  WBO       # sym  WBO
 ---------------------------------------------------------------------------
     1   6 C    3.991 --    11 C    1.032     2 C    0.967     9 C    0.965
                             6 C    0.964
     2   6 C    3.996 --     3 C    0.996    21 H    0.976    22 H    0.976
                             1 C    0.967
     3   6 C    3.996 --    10 C    0.998     4 C    0.998     2 C    0.996
                            23 H    0.967
     4   6 C    3.998 --     5 C    0.998     3 C    0.998    25 H    0.976
                            24 H    0.976
     5   6 C    3.996 --     4 C    0.998     7 C    0.998     6 C    0.996
                            26 H    0.967
     6   6 C    3.992 --     5 C    0.996    28 H    0.976    27 H    0.976
                             1 C    0.964
     7   6 C    3.998 --     5 C    0.998     8 C    0.998    29 H    0.976
                            30 H    0.976
     8   6 C    3.996 --    10 C    0.998     7 C    0.998     9 C    0.996
                            31 H    0.967
     9   6 C    3.992 --     8 C    0.996    33 H    0.976    32 H    0.976
                             1 C    0.965
    10   6 C    3.998 --     8 C    0.998     3 C    0.998    35 H    0.976
                            34 H    0.976
    11   6 C    3.945 --    12 C    2.734     1 C    1.032
    12   6 C    3.974 --    11 C    2.734    13 C    1.109
    13   6 C    3.989 --    14 C    1.378    18 C    1.358    12 C    1.109
    14   6 C    3.986 --    15 C    1.390    13 C    1.378    36 H    0.968
    15   6 C    3.989 --    14 C    1.390    16 C    1.367    19 C    1.089
    16   6 C    3.963 --    17 C    1.451    15 C    1.367    37 H    0.966
    17   6 C    3.992 --    16 C    1.451    18 C    1.444    38 H    0.970
    18   6 C    3.987 --    17 C    1.444    13 C    1.358    39 H    0.971
    19   6 C    3.990 --    20 C    1.903    15 C    1.089    40 H    0.964
    20   6 C    3.991 --    19 C    1.903    41 H    0.978    42 H    0.972
    21   1 H    0.999 --     2 C    0.976
    22   1 H    0.999 --     2 C    0.976
    23   1 H    0.998 --     3 C    0.967
    24   1 H    0.999 --     4 C    0.976
    25   1 H    0.999 --     4 C    0.976
    26   1 H    0.998 --     5 C    0.967
    27   1 H    0.999 --     6 C    0.976
    28   1 H    0.999 --     6 C    0.976
    29   1 H    0.999 --     7 C    0.976
    30   1 H    0.999 --     7 C    0.976
    31   1 H    0.998 --     8 C    0.967
    32   1 H    0.999 --     9 C    0.976
    33   1 H    0.999 --     9 C    0.976
    34   1 H    0.999 --    10 C    0.976
    35   1 H    0.999 --    10 C    0.976
    36   1 H    0.999 --    14 C    0.968
    37   1 H    0.999 --    16 C    0.966
    38   1 H    0.997 --    17 C    0.970
    39   1 H    0.998 --    18 C    0.971
    40   1 H    0.998 --    19 C    0.964
    41   1 H    0.997 --    20 C    0.978
    42   1 H    0.998 --    20 C    0.972
 ---------------------------------------------------------------------------

Topologies differ in bond orders
Writing corrected topology to xtbtopo.sdf

molecular dipole:
                 x           y           z       tot (Debye)
 q only:       -0.397      -0.140       0.029
   full:       -0.353      -0.122       0.024       0.950
molecular quadrupole (traceless):
                xx          xy          yy          xz          yz          zz
 q only:        3.391       1.084      -0.941       0.248      -1.319      -2.450
  q+dip:        7.548       2.863      -1.047       0.638      -4.914      -6.501
   full:        4.231       1.567      -0.693       0.335      -2.556      -3.538

           -------------------------------------------------
          |                Geometry Summary                 |
           -------------------------------------------------

      molecular mass/u    :      262.3894145
   center of mass at/Å    :        0.3560964       0.1369148       0.0026436
  moments of inertia/u·Å² :        0.5054070E+03   0.3891642E+04   0.4100528E+04
rotational constants/cm⁻¹ :        0.3335457E-01   0.4331753E-02   0.4111089E-02

 * 42 selected distances

     #   Z          #   Z                                           value/Å
     1   6 C        2   6 C                                       1.5355016
     2   6 C        3   6 C                                       1.5279551
     3   6 C        4   6 C                                       1.5283887
     4   6 C        5   6 C                                       1.5283576
     1   6 C        6   6 C                                       1.5362045 (max)
     5   6 C        6   6 C                                       1.5279373
     5   6 C        7   6 C                                       1.5283717
     7   6 C        8   6 C                                       1.5283779
     1   6 C        9   6 C                                       1.5360939
     8   6 C        9   6 C                                       1.5279421
     3   6 C       10   6 C                                       1.5283843
     8   6 C       10   6 C                                       1.5283627
    11   6 C       12   6 C                                       1.2035619
    13   6 C       14   6 C                                       1.3920500
    14   6 C       15   6 C                                       1.3931588
    15   6 C       16   6 C                                       1.3967440
    16   6 C       17   6 C                                       1.3826609
    13   6 C       18   6 C                                       1.3952038
    17   6 C       18   6 C                                       1.3826233
    19   6 C       20   6 C                                       1.3276339
     2   6 C       21   1 H                                       1.0926639
     2   6 C       22   1 H                                       1.0926606
     3   6 C       23   1 H                                       1.0958907
     4   6 C       24   1 H                                       1.0921729
     4   6 C       25   1 H                                       1.0924444
     5   6 C       26   1 H                                       1.0958790
     6   6 C       27   1 H                                       1.0925834
     6   6 C       28   1 H                                       1.0926092
     7   6 C       29   1 H                                       1.0924386
     7   6 C       30   1 H                                       1.0921575
     8   6 C       31   1 H                                       1.0958852
     9   6 C       32   1 H                                       1.0925775
     9   6 C       33   1 H                                       1.0926198
    10   6 C       34   1 H                                       1.0921694
    10   6 C       35   1 H                                       1.0924450
    14   6 C       36   1 H                                       1.0811277
    16   6 C       37   1 H                                       1.0783756
    17   6 C       38   1 H                                       1.0801986
    18   6 C       39   1 H                                       1.0798062
    19   6 C       40   1 H                                       1.0833672
    20   6 C       41   1 H                                       1.0761199 (min)
    20   6 C       42   1 H                                       1.0762211

 * 2 distinct bonds (by element types)

   Z      Z             #   av. dist./Å        max./Å        min./Å
   1 H    6 C          22     1.0887461     1.0958907     1.0761199
   6 C    6 C          20     1.4617757     1.5362045     1.2035619


optimized geometry written to: xtbopt.sdf


           -------------------------------------------------
          | TOTAL ENERGY              -54.026825611533 Eh   |
          | GRADIENT NORM               0.000055611646 Eh/α |
          | HOMO-LUMO GAP               3.377872808826 eV   |
           -------------------------------------------------

------------------------------------------------------------------------
 * finished run on 2023/07/25 at 16:06:28.462     
------------------------------------------------------------------------
 total:
 * wall-time:     0 d,  0 h,  0 min,  6.391 sec
 *  cpu-time:     0 d,  0 h,  0 min, 46.741 sec
 * ratio c/w:     7.313 speedup
 SCF:
 * wall-time:     0 d,  0 h,  0 min,  0.506 sec
 *  cpu-time:     0 d,  0 h,  0 min,  3.705 sec
 * ratio c/w:     7.324 speedup
 ANC optimizer:
 * wall-time:     0 d,  0 h,  0 min,  5.731 sec
 *  cpu-time:     0 d,  0 h,  0 min, 41.904 sec
 * ratio c/w:     7.312 speedup

