      -----------------------------------------------------------      
     |                   =====================                   |     
     |                           x T B                           |     
     |                   =====================                   |     
     |                         S. Grimme                         |     
     |          Mulliken Center for Theoretical Chemistry        |     
     |                    University of Bonn                     |     
      -----------------------------------------------------------      

   * xtb version 6.6.0 (2ccbbd7) compiled by 'conda@6fe65c42fc39' on 2023-02-10

   xtb is free software: you can redistribute it and/or modify it under
   the terms of the GNU Lesser General Public License as published by
   the Free Software Foundation, either version 3 of the License, or
   (at your option) any later version.
   
   xtb is distributed in the hope that it will be useful,
   but WITHOUT ANY WARRANTY; without even the implied warranty of
   MERCHANTABILITY or FITNESS FOR A PARTICULAR PURPOSE.  See the
   GNU Lesser General Public License for more details.
   
   Cite this work as:
   * C. Bannwarth, E. Caldeweyher, S. Ehlert, A. Hansen, P. Pracht,
     J. Seibert, S. Spicher, S. Grimme, WIREs Comput. Mol. Sci., 2020, 11,
     e01493. DOI: 10.1002/wcms.1493
   
   for GFN2-xTB:
   * C. Bannwarth, S. Ehlert and S. Grimme., J. Chem. Theory Comput., 2019,
     15, 1652-1671. DOI: 10.1021/acs.jctc.8b01176
   for GFN1-xTB:
   * S. Grimme, C. Bannwarth, P. Shushkov, J. Chem. Theory Comput., 2017,
     13, 1989-2009. DOI: 10.1021/acs.jctc.7b00118
   for GFN0-xTB:
   * P. Pracht, E. Caldeweyher, S. Ehlert, S. Grimme, ChemRxiv, 2019, preprint.
     DOI: 10.26434/chemrxiv.8326202.v1
   for GFN-FF:
   * S. Spicher and S. Grimme, Angew. Chem. Int. Ed., 2020, 59, 15665-15673.
     DOI: 10.1002/anie.202004239
   
   for ALPB and GBSA implicit solvation:
   * S. Ehlert, M. Stahn, S. Spicher, S. Grimme, J. Chem. Theory Comput.,
     2021, 17, 4250-4261. DOI: 10.1021/acs.jctc.1c00471
   
   for DFT-D4:
   * E. Caldeweyher, C. Bannwarth and S. Grimme, J. Chem. Phys., 2017,
     147, 034112. DOI: 10.1063/1.4993215
   * E. Caldeweyher, S. Ehlert, A. Hansen, H. Neugebauer, S. Spicher,
     C. Bannwarth and S. Grimme, J. Chem. Phys., 2019, 150, 154122.
     DOI: 10.1063/1.5090222
   * E. Caldeweyher, J.-M. Mewes, S. Ehlert and S. Grimme, Phys. Chem. Chem. Phys.
     2020, 22, 8499-8512. DOI: 10.1039/D0CP00502A
   
   for sTDA-xTB:
   * S. Grimme and C. Bannwarth, J. Chem. Phys., 2016, 145, 054103.
     DOI: 10.1063/1.4959605
   
   in the mass-spec context:
   * V. Asgeirsson, C. Bauer and S. Grimme, Chem. Sci., 2017, 8, 4879.
     DOI: 10.1039/c7sc00601b
   * J. Koopman and S. Grimme, ACS Omega 2019, 4, 12, 15120-15133.
     DOI: 10.1021/acsomega.9b02011
   
   for metadynamics refer to:
   * S. Grimme, J. Chem. Theory Comput., 2019, 155, 2847-2862
     DOI: 10.1021/acs.jctc.9b00143
   
   for SPH calculations refer to:
   * S. Spicher and S. Grimme, J. Chem. Theory Comput., 2021, 17, 1701-1714
     DOI: 10.1021/acs.jctc.0c01306
   
   with help from (in alphabetical order)
   P. Atkinson, C. Bannwarth, F. Bohle, G. Brandenburg, E. Caldeweyher
   M. Checinski, S. Dohm, S. Ehlert, S. Ehrlich, I. Gerasimov, C. Hölzer
   A. Katbashev, J. Koopman, C. Lavigne, S. Lehtola, F. März, M. Müller,
   F. Musil, H. Neugebauer, J. Pisarek, C. Plett, P. Pracht, F. Pultar,
   J. Seibert, P. Shushkov, S. Spicher, M. Stahn, M. Steiner, T. Strunk,
   J. Stückrath, T. Rose, and J. Unsleber
   
 * started run on 2023/07/25 at 15:50:32.334     

           -------------------------------------------------
          |                Calculation Setup                |
           -------------------------------------------------

          program call               : xtb --input xtb.inp 101803327.sdf --opt vtight
          coordinate file            : 101803327.sdf
          omp threads                :                     8

   ID    Z sym.   atoms
    1    6 C      1-20
    2    1 H      21-42

           -------------------------------------------------
          |                 G F N 2 - x T B                 |
           -------------------------------------------------

        Reference                      10.1021/acs.jctc.8b01176
      * Hamiltonian:
        H0-scaling (s, p, d)           1.850000    2.230000    2.230000
        zeta-weighting                 0.500000
      * Dispersion:
        s8                             2.700000
        a1                             0.520000
        a2                             5.000000
        s9                             5.000000
      * Repulsion:
        kExp                           1.500000    1.000000
        rExp                           1.000000
      * Coulomb:
        alpha                          2.000000
        third order                    shell-resolved
        anisotropic                    true
        a3                             3.000000
        a5                             4.000000
        cn-shift                       1.200000
        cn-exp                         4.000000
        max-rad                        5.000000


          ...................................................
          :                      SETUP                      :
          :.................................................:
          :  # basis functions                 102          :
          :  # atomic orbitals                 102          :
          :  # shells                           62          :
          :  # electrons                       102          :
          :  max. iterations                   250          :
          :  Hamiltonian                  GFN2-xTB          :
          :  restarted?                      false          :
          :  GBSA solvation                  false          :
          :  PC potential                    false          :
          :  electronic temp.          300.0000000     K    :
          :  accuracy                    1.0000000          :
          :  -> integral cutoff          0.2500000E+02      :
          :  -> integral neglect         0.1000000E-07      :
          :  -> SCF convergence          0.1000000E-05 Eh   :
          :  -> wf. convergence          0.1000000E-03 e    :
          :  Broyden damping             0.4000000          :
          ...................................................

 iter      E             dE          RMSdq      gap      omega  full diag
   1    -54.8775054 -0.548775E+02  0.407E+00    3.45       0.0  T
   2    -54.9376969 -0.601915E-01  0.242E+00    3.31       1.0  T
   3    -54.9285161  0.918080E-02  0.791E-01    3.40       1.0  T
   4    -54.9281269  0.389152E-03  0.556E-01    3.40       1.0  T
   5    -54.9418335 -0.137065E-01  0.126E-01    3.37       1.0  T
   6    -54.9422144 -0.380956E-03  0.466E-02    3.38       1.0  T
   7    -54.9422615 -0.471115E-04  0.208E-02    3.37       1.0  T
   8    -54.9422650 -0.345943E-05  0.101E-02    3.38       1.5  T
   9    -54.9422662 -0.126166E-05  0.365E-03    3.38       4.2  T
  10    -54.9422667 -0.500689E-06  0.677E-04    3.38      22.8  T
  11    -54.9422667 -0.144778E-08  0.303E-04    3.38      50.9  T

   *** convergence criteria satisfied after 11 iterations ***

         #    Occupation            Energy/Eh            Energy/eV
      -------------------------------------------------------------
         1        2.0000           -0.6438614             -17.5204
       ...           ...                  ...                  ...
        45        2.0000           -0.4180063             -11.3745
        46        2.0000           -0.4066222             -11.0648
        47        2.0000           -0.4039221             -10.9913
        48        2.0000           -0.4022552             -10.9459
        49        2.0000           -0.3892917             -10.5932
        50        2.0000           -0.3842644             -10.4564
        51        2.0000           -0.3745963             -10.1933 (HOMO)
        52                         -0.2505461              -6.8177 (LUMO)
        53                         -0.2323712              -6.3231
        54                         -0.1819915              -4.9522
        55                         -0.1474758              -4.0130
        56                         -0.1215141              -3.3066
       ...                                ...                  ...
       102                          1.4148886              38.5011
      -------------------------------------------------------------
                  HL-Gap            0.1240502 Eh            3.3756 eV
             Fermi-level           -0.3125712 Eh           -8.5055 eV

 SCC (total)                   0 d,  0 h,  0 min,  0.786 sec
 SCC setup                      ...        0 min,  0.010 sec (  1.312%)
 Dispersion                     ...        0 min,  0.015 sec (  1.856%)
 classical contributions        ...        0 min,  0.010 sec (  1.234%)
 integral evaluation            ...        0 min,  0.008 sec (  1.008%)
 iterations                     ...        0 min,  0.619 sec ( 78.715%)
 molecular gradient             ...        0 min,  0.117 sec ( 14.929%)
 printout                       ...        0 min,  0.007 sec (  0.936%)

         :::::::::::::::::::::::::::::::::::::::::::::::::::::
         ::                     SUMMARY                     ::
         :::::::::::::::::::::::::::::::::::::::::::::::::::::
         :: total energy             -54.020466342900 Eh    ::
         :: gradient norm              0.043651804759 Eh/a0 ::
         :: HOMO-LUMO gap              3.375576572630 eV    ::
         ::.................................................::
         :: SCC energy               -54.942266744055 Eh    ::
         :: -> isotropic ES            0.004372574779 Eh    ::
         :: -> anisotropic ES          0.009497085628 Eh    ::
         :: -> anisotropic XC          0.034960824176 Eh    ::
         :: -> dispersion             -0.043292636979 Eh    ::
         :: repulsion energy           0.921838018551 Eh    ::
         :: add. restraining           0.000000000000 Eh    ::
         :: total charge              -0.000000000000 e     ::
         :::::::::::::::::::::::::::::::::::::::::::::::::::::

      ----------------------------------------------------------- 
     |                   =====================                   |
     |                        A N C O P T                        |
     |                   =====================                   |
     |               Approximate Normal Coordinate               |
     |                Rational Function Optimizer                |
      ----------------------------------------------------------- 

          ...................................................
          :                      SETUP                      :
          :.................................................:
          :   optimization level         verytight          :
          :   max. optcycles                   840          :
          :   ANC micro-cycles                  20          :
          :   degrees of freedom               120          :
          :.................................................:
          :   RF solver                   davidson          :
          :   write xtbopt.log                true          :
          :   linear?                        false          :
          :   energy convergence         0.1000000E-06 Eh   :
          :   grad. convergence          0.2000000E-03 Eh/α :
          :   maxmium RF displ.          1.0000000          :
          :   Hlow (freq-cutoff)         0.1000000E-01      :
          :   Hmax (freq-cutoff)         5.0000000          :
          :   S6 in model hess.         20.0000000          :
          ...................................................

generating ANC from model Hessian ...
Using Lindh-Hessian (1995)
 Shifting diagonal of input Hessian by    9.8946022100914570E-003
 Lowest  eigenvalues of input Hessian
    0.000000    0.000000    0.000000    0.000000    0.000000    0.000000
    0.010000    0.010139    0.010148    0.012022    0.013624    0.014375
    0.014936    0.018529    0.019333    0.020055    0.020162    0.022218
 Highest eigenvalues
    1.595567    1.833088    1.868296    1.947667    1.998533    2.578777


........................................................................
.............................. CYCLE    1 ..............................
........................................................................

 iter      E             dE          RMSdq      gap      omega  full diag
   1    -54.9422667 -0.549423E+02  0.700E-05    3.38       0.0  T
   2    -54.9422667 -0.304254E-10  0.405E-05    3.38     381.1  T
   3    -54.9422667 -0.183462E-10  0.307E-05    3.38     503.4  T
     SCC iter.                  ...        0 min,  0.128 sec
     gradient                   ...        0 min,  0.173 sec
 * total energy  :   -54.0204663 Eh     change       -0.1532840E-08 Eh
   gradient norm :     0.0436528 Eh/α   predicted     0.0000000E+00 (-100.00%)
   displ. norm   :     0.2283443 α      lambda       -0.4930636E-02
   maximum displ.:     0.1066269 α      in ANC's #8, #43, #58, ...

........................................................................
.............................. CYCLE    2 ..............................
........................................................................

 iter      E             dE          RMSdq      gap      omega  full diag
   1    -54.9744818 -0.549745E+02  0.120E-01    3.39       0.0  T
   2    -54.9744750  0.680494E-05  0.758E-02    3.39       1.0  T
   3    -54.9743235  0.151535E-03  0.656E-02    3.39       1.0  T
   4    -54.9745022 -0.178747E-03  0.721E-03    3.39       2.1  T
   5    -54.9745039 -0.165979E-05  0.248E-03    3.39       6.2  T
   6    -54.9745039 -0.470443E-07  0.129E-03    3.39      12.0  T
   7    -54.9745040 -0.253195E-07  0.425E-04    3.39      36.3  T
   8    -54.9745040 -0.398301E-08  0.146E-04    3.39     106.0  T
     SCC iter.                  ...        0 min,  0.617 sec
     gradient                   ...        0 min,  0.166 sec
 * total energy  :   -54.0235027 Eh     change       -0.3036318E-02 Eh
   gradient norm :     0.0122794 Eh/α   predicted    -0.2594564E-02 ( -14.55%)
   displ. norm   :     0.1682981 α      lambda       -0.8583119E-03
   maximum displ.:     0.1162876 α      in ANC's #8, #9, #43, ...

........................................................................
.............................. CYCLE    3 ..............................
........................................................................

 iter      E             dE          RMSdq      gap      omega  full diag
   1    -54.9909776 -0.549910E+02  0.569E-02    3.38       0.0  T
   2    -54.9909770  0.601841E-06  0.355E-02    3.39       1.0  T
   3    -54.9909482  0.288290E-04  0.297E-02    3.39       1.0  T
   4    -54.9909823 -0.340652E-04  0.416E-03    3.39       3.7  T
   5    -54.9909829 -0.623622E-06  0.110E-03    3.39      14.1  T
   6    -54.9909829 -0.155916E-07  0.638E-04    3.39      24.2  T
   7    -54.9909829 -0.258124E-08  0.259E-04    3.39      59.6  T
     SCC iter.                  ...        0 min,  0.356 sec
     gradient                   ...        0 min,  0.145 sec
 * total energy  :   -54.0239599 Eh     change       -0.4572584E-03 Eh
   gradient norm :     0.0039426 Eh/α   predicted    -0.4413194E-03 (  -3.49%)
   displ. norm   :     0.0701929 α      lambda       -0.9866188E-04
   maximum displ.:     0.0549282 α      in ANC's #8, #9, #5, ...

........................................................................
.............................. CYCLE    4 ..............................
........................................................................

 iter      E             dE          RMSdq      gap      omega  full diag
   1    -54.9918908 -0.549919E+02  0.205E-02    3.38       0.0  T
   2    -54.9918908 -0.613518E-08  0.127E-02    3.38       1.2  T
   3    -54.9918876  0.315769E-05  0.947E-03    3.38       1.6  T
   4    -54.9918911 -0.348262E-05  0.138E-03    3.38      11.2  T
   5    -54.9918912 -0.934029E-07  0.273E-04    3.38      56.6  T
   6    -54.9918912 -0.386891E-09  0.132E-04    3.38     116.7  T
     SCC iter.                  ...        0 min,  0.431 sec
     gradient                   ...        0 min,  0.126 sec
 * total energy  :   -54.0240244 Eh     change       -0.6448793E-04 Eh
   gradient norm :     0.0019831 Eh/α   predicted    -0.4958761E-04 ( -23.11%)
   displ. norm   :     0.0655940 α      lambda       -0.2996839E-04
   maximum displ.:     0.0491944 α      in ANC's #8, #9, #5, ...

........................................................................
.............................. CYCLE    5 ..............................
........................................................................

 iter      E             dE          RMSdq      gap      omega  full diag
   1    -54.9910626 -0.549911E+02  0.190E-02    3.37       0.0  T
   2    -54.9910627 -0.133224E-06  0.116E-02    3.37       1.3  T
   3    -54.9910621  0.669176E-06  0.385E-03    3.37       4.0  T
   4    -54.9910628 -0.764292E-06  0.586E-04    3.37      26.3  T
   5    -54.9910628 -0.940299E-08  0.263E-04    3.37      58.7  T
     SCC iter.                  ...        0 min,  0.273 sec
     gradient                   ...        0 min,  0.167 sec
 * total energy  :   -54.0240392 Eh     change       -0.1481280E-04 Eh
   gradient norm :     0.0015491 Eh/α   predicted    -0.1501770E-04 (   1.38%)
   displ. norm   :     0.0165492 α      lambda       -0.4322336E-05
   maximum displ.:     0.0125621 α      in ANC's #8, #17, #9, ...

........................................................................
.............................. CYCLE    6 ..............................
........................................................................

 iter      E             dE          RMSdq      gap      omega  full diag
   1    -54.9912375 -0.549912E+02  0.496E-03    3.38       0.0  T
   2    -54.9912375 -0.211372E-07  0.314E-03    3.38       4.9  T
   3    -54.9912375  0.647759E-07  0.132E-03    3.38      11.7  T
   4    -54.9912375 -0.806216E-07  0.106E-04    3.38     145.2  T
   5    -54.9912375 -0.443237E-10  0.705E-05    3.38     219.0  T
     SCC iter.                  ...        0 min,  0.358 sec
     gradient                   ...        0 min,  0.162 sec
 * total energy  :   -54.0240427 Eh     change       -0.3493652E-05 Eh
   gradient norm :     0.0002348 Eh/α   predicted    -0.2163995E-05 ( -38.06%)
   displ. norm   :     0.0044836 α      lambda       -0.2851302E-06
   maximum displ.:     0.0032172 α      in ANC's #5, #17, #9, ...

........................................................................
.............................. CYCLE    7 ..............................
........................................................................

 iter      E             dE          RMSdq      gap      omega  full diag
   1    -54.9913593 -0.549914E+02  0.192E-03    3.38       0.0  T
   2    -54.9913593 -0.400796E-09  0.116E-03    3.38      13.3  T
   3    -54.9913593  0.231341E-07  0.709E-04    3.38      21.8  T
   4    -54.9913593 -0.247782E-07  0.978E-05    3.38     157.8  T
     SCC iter.                  ...        0 min,  0.364 sec
     gradient                   ...        0 min,  0.174 sec
 * total energy  :   -54.0240429 Eh     change       -0.1950027E-06 Eh
   gradient norm :     0.0001234 Eh/α   predicted    -0.1430786E-06 ( -26.63%)
   displ. norm   :     0.0045796 α      lambda       -0.1433302E-06
   maximum displ.:     0.0036725 α      in ANC's #5, #9, #17, ...

........................................................................
.............................. CYCLE    8 ..............................
........................................................................

 iter      E             dE          RMSdq      gap      omega  full diag
   1    -54.9913752 -0.549914E+02  0.160E-03    3.38       0.0  T
   2    -54.9913752 -0.344961E-09  0.955E-04    3.38      16.2  T
   3    -54.9913752  0.848544E-09  0.142E-04    3.38     108.5  T
     SCC iter.                  ...        0 min,  0.194 sec
     gradient                   ...        0 min,  0.150 sec
 * total energy  :   -54.0240430 Eh     change       -0.8024234E-07 Eh
   gradient norm :     0.0001209 Eh/α   predicted    -0.7207448E-07 ( -10.18%)
   displ. norm   :     0.0019004 α      lambda       -0.1723950E-07
   maximum displ.:     0.0014931 α      in ANC's #5, #2, #43, ...

   *** GEOMETRY OPTIMIZATION CONVERGED AFTER 8 ITERATIONS ***

------------------------------------------------------------------------
 total energy gain   :        -0.0035766 Eh       -2.2444 kcal/mol
 total RMSD          :         0.0727416 a0        0.0385 Å
 total power (kW/mol):        -1.1738110 (step)   -1.7972 (real)
------------------------------------------------------------------------

 ANCopt (total)                0 d,  0 h,  0 min,  5.225 sec
 optimizer setup                ...        0 min,  0.000 sec (  0.007%)
 model hessian                  ...        0 min,  0.171 sec (  3.271%)
 ANC generation                 ...        0 min,  0.005 sec (  0.097%)
 coordinate transformation      ...        0 min,  0.046 sec (  0.881%)
 single point calculation       ...        0 min,  4.911 sec ( 93.992%)
 optimization log               ...        0 min,  0.011 sec (  0.204%)
 hessian update                 ...        0 min,  0.051 sec (  0.979%)
 rational function              ...        0 min,  0.017 sec (  0.321%)

================
 final structure:
================
 xtb: 6.6.0 (2ccbbd7)
          07252315503D

 42 45  0     0  0            999 V2000
   -1.3848   -0.1998   -0.0355 C   0  0  0  0  0  0  0  0  0  0  0  0
   -2.3151    0.8304   -0.6913 C   0  0  0  0  0  0  0  0  0  0  0  0
   -3.7612    0.3468   -0.5976 C   0  0  0  0  0  0  0  0  0  0  0  0
   -3.9012   -0.9921   -1.3209 C   0  0  0  0  0  0  0  0  0  0  0  0
   -2.9812   -2.0213   -0.6655 C   0  0  0  0  0  0  0  0  0  0  0  0
   -1.5322   -1.5464   -0.7594 C   0  0  0  0  0  0  0  0  0  0  0  0
   -3.3700   -2.1928    0.8024 C   0  0  0  0  0  0  0  0  0  0  0  0
   -3.2301   -0.8528    1.5238 C   0  0  0  0  0  0  0  0  0  0  0  0
   -1.7820   -0.3738    1.4378 C   0  0  0  0  0  0  0  0  0  0  0  0
   -4.1503    0.1777    0.8705 C   0  0  0  0  0  0  0  0  0  0  0  0
   -0.0075    0.2540   -0.1215 C   0  0  0  0  0  0  0  0  0  0  0  0
    1.1334    0.6298   -0.1922 C   0  0  0  0  0  0  0  0  0  0  0  0
    2.4744    1.0756   -0.2785 C   0  0  0  0  0  0  0  0  0  0  0  0
    3.4957    0.3433    0.3197 C   0  0  0  0  0  0  0  0  0  0  0  0
    4.8217    0.7638    0.2476 C   0  0  0  0  0  0  0  0  0  0  0  0
    5.1069    1.9439   -0.4426 C   0  0  0  0  0  0  0  0  0  0  0  0
    4.0957    2.6745   -1.0382 C   0  0  0  0  0  0  0  0  0  0  0  0
    2.7816    2.2517   -0.9629 C   0  0  0  0  0  0  0  0  0  0  0  0
    5.8474   -0.0467    0.8948 C   0  0  0  0  0  0  0  0  0  0  0  0
    7.1514    0.1983    0.9296 C   0  0  0  0  0  0  0  0  0  0  0  0
   -2.2068    1.7940   -0.1874 H   0  0  0  0  0  0  0  0  0  0  0  0
   -2.0306    0.9663   -1.7377 H   0  0  0  0  0  0  0  0  0  0  0  0
   -4.4198    1.0867   -1.0674 H   0  0  0  0  0  0  0  0  0  0  0  0
   -4.9374   -1.3348   -1.2713 H   0  0  0  0  0  0  0  0  0  0  0  0
   -3.6376   -0.8751   -2.3749 H   0  0  0  0  0  0  0  0  0  0  0  0
   -3.0792   -2.9821   -1.1843 H   0  0  0  0  0  0  0  0  0  0  0  0
   -0.8645   -2.2818   -0.3040 H   0  0  0  0  0  0  0  0  0  0  0  0
   -1.2398   -1.4328   -1.8061 H   0  0  0  0  0  0  0  0  0  0  0  0
   -2.7250   -2.9383    1.2737 H   0  0  0  0  0  0  0  0  0  0  0  0
   -4.4005   -2.5482    0.8749 H   0  0  0  0  0  0  0  0  0  0  0  0
   -3.5070   -0.9742    2.5775 H   0  0  0  0  0  0  0  0  0  0  0  0
   -1.1167   -1.0985    1.9132 H   0  0  0  0  0  0  0  0  0  0  0  0
   -1.6682    0.5782    1.9620 H   0  0  0  0  0  0  0  0  0  0  0  0
   -5.1892   -0.1522    0.9441 H   0  0  0  0  0  0  0  0  0  0  0  0
   -4.0655    1.1349    1.3907 H   0  0  0  0  0  0  0  0  0  0  0  0
    3.2476   -0.5670    0.8482 H   0  0  0  0  0  0  0  0  0  0  0  0
    6.1247    2.2940   -0.5151 H   0  0  0  0  0  0  0  0  0  0  0  0
    4.3346    3.5855   -1.5683 H   0  0  0  0  0  0  0  0  0  0  0  0
    1.9897    2.8208   -1.4273 H   0  0  0  0  0  0  0  0  0  0  0  0
    5.4693   -0.9340    1.3892 H   0  0  0  0  0  0  0  0  0  0  0  0
    7.8317   -0.4646    1.4366 H   0  0  0  0  0  0  0  0  0  0  0  0
    7.5976    1.0591    0.4617 H   0  0  0  0  0  0  0  0  0  0  0  0
  1  2  1  0  0  0  0
  1 11  1  0  0  0  0
  2  3  1  0  0  0  0
  2 21  1  0  0  0  0
  2 22  1  0  0  0  0
  3  4  1  0  0  0  0
  3 23  1  0  0  0  0
  4  5  1  0  0  0  0
  4 24  1  0  0  0  0
  4 25  1  0  0  0  0
  5  6  1  0  0  0  0
  5  7  1  0  0  0  0
  5 26  1  0  0  0  0
  6  1  1  0  0  0  0
  6 27  1  0  0  0  0
  6 28  1  0  0  0  0
  7  8  1  0  0  0  0
  7 29  1  0  0  0  0
  7 30  1  0  0  0  0
  8  9  1  0  0  0  0
  8 10  1  0  0  0  0
  8 31  1  0  0  0  0
  9  1  1  0  0  0  0
  9 32  1  0  0  0  0
  9 33  1  0  0  0  0
 10  3  1  0  0  0  0
 10 34  1  0  0  0  0
 10 35  1  0  0  0  0
 11 12  3  0  0  0  0
 12 13  1  0  0  0  0
 13 14  2  0  0  0  0
 14 15  1  0  0  0  0
 14 36  1  0  0  0  0
 15 16  2  0  0  0  0
 15 19  1  0  0  0  0
 16 17  1  0  0  0  0
 16 37  1  0  0  0  0
 17 18  2  0  0  0  0
 17 38  1  0  0  0  0
 18 13  1  0  0  0  0
 18 39  1  0  0  0  0
 19 20  2  0  0  0  0
 19 40  1  0  0  0  0
 20 41  1  0  0  0  0
 20 42  1  0  0  0  0
M  END
$$$$

 Bond Distances (Angstroems)
 ---------------------------
C1-C2=1.5352         C1-C6=1.5359         C1-C9=1.5358         C1-C11=1.4526        C2-C1=1.5352         C2-C3=1.5277         
C2-H21=1.0928        C2-H22=1.0928        C3-C2=1.5277         C3-C4=1.5282         C3-C10=1.5282        C3-H23=1.0963        
C4-C3=1.5282         C4-C5=1.5282         C4-H24=1.0926        C4-H25=1.0927        C5-C4=1.5282         C5-C6=1.5277         
C5-C7=1.5282         C5-H26=1.0963        C6-C1=1.5359         C6-C5=1.5277         C6-H27=1.0927        C6-H28=1.0927        
C7-C5=1.5282         C7-C8=1.5282         C7-H29=1.0927        C7-H30=1.0925        C8-C7=1.5282         C8-C9=1.5277         
C8-C10=1.5282        C8-H31=1.0963        C9-C1=1.5358         C9-C8=1.5277         C9-H32=1.0927        C9-H33=1.0927        
C10-C3=1.5282        C10-C8=1.5282        C10-H34=1.0926       C10-H35=1.0927       C11-C1=1.4526        C11-C12=1.2033       
C12-C11=1.2033       C12-C13=1.4158       C13-C12=1.4158       C13-C14=1.3919       C13-C18=1.3950       C14-C13=1.3919       
C14-C15=1.3930       C14-H36=1.0814       C15-C14=1.3930       C15-C16=1.3965       C15-C19=1.4587       C16-C15=1.3965       
C16-C17=1.3825       C16-H37=1.0788       C17-C16=1.3825       C17-C18=1.3824       C17-H38=1.0808       C18-C13=1.3950       
C18-C17=1.3824       C18-H39=1.0801       C19-C15=1.4587       C19-C20=1.3273       C19-H40=1.0837       C20-C19=1.3273       
C20-H41=1.0766       C20-H42=1.0765       H21-C2=1.0928        H22-C2=1.0928        H23-C3=1.0963        H24-C4=1.0926        
H25-C4=1.0927        H26-C5=1.0963        H27-C6=1.0927        H28-C6=1.0927        H29-C7=1.0927        H30-C7=1.0925        
H31-C8=1.0963        H32-C9=1.0927        H33-C9=1.0927        H34-C10=1.0926       H35-C10=1.0927       H36-C14=1.0814       
H37-C16=1.0788       H38-C17=1.0808       H39-C18=1.0801       H40-C19=1.0837       H41-C20=1.0766       H42-C20=1.0765       
 C  H  Rav=1.0890 sigma=0.0066  Rmin=1.0765  Rmax=1.0963    22
 C  C  Rav=1.4590 sigma=0.0869  Rmin=1.2033  Rmax=1.5359    23

 selected bond angles (degree)
 --------------------
C6-C1-C2=109.20                C9-C1-C2=109.21                C9-C1-C6=109.15                C11-C1-C2=109.85               
C11-C1-C6=109.70               C11-C1-C9=109.72               C3-C2-C1=109.57                H21-C2-C1=109.56               
H21-C2-C3=110.15               H22-C2-C1=109.56               H22-C2-C3=110.15               H22-C2-H21=107.82              
C4-C3-C2=109.57                C10-C3-C2=109.57               C10-C3-C4=109.54               H23-C3-C2=109.19               
H23-C3-C4=109.48               H23-C3-C10=109.48              C5-C4-C3=109.39                H24-C4-C3=109.89               
H24-C4-C5=109.89               H25-C4-C3=109.92               H25-C4-C5=109.91               H25-C4-H24=107.83              
C6-C5-C4=109.59                C7-C5-C4=109.53                C7-C5-C6=109.58                H26-C5-C4=109.48               
H26-C5-C6=109.16               H26-C5-C7=109.48               C5-C6-C1=109.55                H27-C6-C1=109.57               
H27-C6-C5=110.17               H28-C6-C1=109.55               H28-C6-C5=110.18               H28-C6-H27=107.79              
C8-C7-C5=109.38                H29-C7-C5=109.92               H29-C7-C8=109.92               H30-C7-C5=109.89               
H30-C7-C8=109.89               H30-C7-H29=107.83              C9-C8-C7=109.58                C10-C8-C7=109.53               
C10-C8-C9=109.59               H31-C8-C7=109.48               H31-C8-C9=109.17               H31-C8-C10=109.48              
C8-C9-C1=109.55                H32-C9-C1=109.57               H32-C9-C8=110.16               H33-C9-C1=109.55               
H33-C9-C8=110.18               H33-C9-H32=107.80              C8-C10-C3=109.39               H34-C10-C3=109.89              
H34-C10-C8=109.89              H35-C10-C3=109.91              H35-C10-C8=109.91              H35-C10-H34=107.83             

 selected dihedral angles (degree)
 ---------------------------------
C3-C2-C1-C6= 59.65            C3-C2-C1-C9=300.37            C3-C2-C1-C11=179.99           H21-C2-C1-C6=180.61           
H21-C2-C1-C9= 61.32           H21-C2-C1-C11=300.95          H22-C2-C1-C6=298.70           H22-C2-C1-C9=179.41           
H22-C2-C1-C11= 59.04          C4-C3-C2-C1=299.89            C4-C3-C2-H21=179.30           C4-C3-C2-H22= 60.48           
C10-C3-C2-C1= 60.10           C10-C3-C2-H21=299.50          C10-C3-C2-H22=180.69          H23-C3-C2-C1=179.99           
H23-C3-C2-H21= 59.40          H23-C3-C2-H22=300.59          C5-C4-C3-C2= 60.21            C5-C4-C3-C10=299.98           
C5-C4-C3-H23=179.93           H24-C4-C3-C2=180.93           H24-C4-C3-C10= 60.70          H24-C4-C3-H23=300.65          
H25-C4-C3-C2=299.45           H25-C4-C3-C10=179.22          H25-C4-C3-H23= 59.17          C6-C5-C4-C3=299.79            
C6-C5-C4-H24=179.06           C6-C5-C4-H25= 60.55           C7-C5-C4-C3= 60.04            C7-C5-C4-H24=299.31           
C7-C5-C4-H25=180.80           H26-C5-C4-C3=180.09           H26-C5-C4-H24= 59.37          H26-C5-C4-H25=300.85          
C5-C6-C1-C2=300.37            C5-C6-C1-C9= 59.69            C5-C6-C1-C11=179.93           H27-C6-C1-C2=179.40           
H27-C6-C1-C9=298.73           H27-C6-C1-C11= 58.96          H28-C6-C1-C2= 61.34           H28-C6-C1-C9=180.66           
H28-C6-C1-C11=300.90          C1-C6-C5-C4= 60.08            C1-C6-C5-C7=299.87            C1-C6-C5-H26=179.97           
H27-C6-C5-C4=180.69           H27-C6-C5-C7= 60.47           H27-C6-C5-H26=300.58          H28-C6-C5-C4=299.50           
H28-C6-C5-C7=179.28           H28-C6-C5-H26= 59.39          C8-C7-C5-C4=299.95            C8-C7-C5-C6= 60.21            
C8-C7-C5-H26=179.90           H29-C7-C5-C4=179.19           H29-C7-C5-C6=299.44           H29-C7-C5-H26= 59.14          
H30-C7-C5-C4= 60.68           H30-C7-C5-C6=180.93           H30-C7-C5-H26=300.62          C9-C8-C7-C5=299.79            
C9-C8-C7-H29= 60.56           C9-C8-C7-H30=179.07           C10-C8-C7-C5= 60.04           C10-C8-C7-H29=180.81          
C10-C8-C7-H30=299.32          H31-C8-C7-C5=180.10           H31-C8-C7-H29=300.86          H31-C8-C7-H30= 59.37          
C8-C9-C1-C2= 59.62            C8-C9-C1-C6=300.30            C8-C9-C1-C11=180.08           H32-C9-C1-C2=180.58           
H32-C9-C1-C6= 61.27           H32-C9-C1-C11=301.04          H33-C9-C1-C2=298.65           H33-C9-C1-C6=179.33           
H33-C9-C1-C11= 59.11          C1-C9-C8-C7= 60.14            C1-C9-C8-C10=299.92           C1-C9-C8-H31=180.03           
H32-C9-C8-C7=299.53           H32-C9-C8-C10=179.32          H32-C9-C8-H31= 59.42          H33-C9-C8-C7=180.73           
H33-C9-C8-C10= 60.51          H33-C9-C8-H31=300.62          C8-C10-C3-C2=299.79           C8-C10-C3-C4= 60.01           
C8-C10-C3-H23=180.06          H34-C10-C3-C2=179.07          H34-C10-C3-C4=299.29          H34-C10-C3-H23= 59.34         
H35-C10-C3-C2= 60.55          H35-C10-C3-C4=180.77          H35-C10-C3-H23=300.82         C3-C10-C8-C7=299.97           
C3-C10-C8-C9= 60.22           C3-C10-C8-H31=179.92          H34-C10-C8-C7= 60.70          H34-C10-C8-C9=180.94          
H34-C10-C8-H31=300.64         H35-C10-C8-C7=179.21          H35-C10-C8-C9=299.45          H35-C10-C8-H31= 59.15         
           -------------------------------------------------
          |                Final Singlepoint                |
           -------------------------------------------------

          ...................................................
          :                      SETUP                      :
          :.................................................:
          :  # basis functions                 102          :
          :  # atomic orbitals                 102          :
          :  # shells                           62          :
          :  # electrons                       102          :
          :  max. iterations                   250          :
          :  Hamiltonian                  GFN2-xTB          :
          :  restarted?                      false          :
          :  GBSA solvation                  false          :
          :  PC potential                    false          :
          :  electronic temp.          300.0000000     K    :
          :  accuracy                    1.0000000          :
          :  -> integral cutoff          0.2500000E+02      :
          :  -> integral neglect         0.1000000E-07      :
          :  -> SCF convergence          0.1000000E-05 Eh   :
          :  -> wf. convergence          0.1000000E-03 e    :
          :  Broyden damping             0.4000000          :
          ...................................................

 iter      E             dE          RMSdq      gap      omega  full diag
   1    -54.9913752 -0.549914E+02  0.393E-05    3.38       0.0  T
   2    -54.9913752  0.321378E-10  0.437E-05    3.38     353.5  T
   3    -54.9913752 -0.810516E-10  0.108E-05    3.38    1429.3  T

   *** convergence criteria satisfied after 3 iterations ***

         #    Occupation            Energy/Eh            Energy/eV
      -------------------------------------------------------------
         1        2.0000           -0.6477420             -17.6260
       ...           ...                  ...                  ...
        45        2.0000           -0.4187856             -11.3957
        46        2.0000           -0.4061833             -11.0528
        47        2.0000           -0.4038635             -10.9897
        48        2.0000           -0.4021410             -10.9428
        49        2.0000           -0.3875593             -10.5460
        50        2.0000           -0.3847419             -10.4694
        51        2.0000           -0.3734278             -10.1615 (HOMO)
        52                         -0.2493734              -6.7858 (LUMO)
        53                         -0.2301022              -6.2614
        54                         -0.1779115              -4.8412
        55                         -0.1469150              -3.9978
        56                         -0.1171554              -3.1880
       ...                                ...                  ...
       102                          1.4293102              38.8935
      -------------------------------------------------------------
                  HL-Gap            0.1240545 Eh            3.3757 eV
             Fermi-level           -0.3114006 Eh           -8.4736 eV

 SCC (total)                   0 d,  0 h,  0 min,  0.690 sec
 SCC setup                      ...        0 min,  0.010 sec (  1.389%)
 Dispersion                     ...        0 min,  0.020 sec (  2.864%)
 classical contributions        ...        0 min,  0.009 sec (  1.300%)
 integral evaluation            ...        0 min,  0.040 sec (  5.821%)
 iterations                     ...        0 min,  0.430 sec ( 62.280%)
 molecular gradient             ...        0 min,  0.179 sec ( 25.975%)
 printout                       ...        0 min,  0.002 sec (  0.359%)

         :::::::::::::::::::::::::::::::::::::::::::::::::::::
         ::                     SUMMARY                     ::
         :::::::::::::::::::::::::::::::::::::::::::::::::::::
         :: total energy             -54.024042991894 Eh    ::
         :: gradient norm              0.000120948415 Eh/a0 ::
         :: HOMO-LUMO gap              3.375693777226 eV    ::
         ::.................................................::
         :: SCC energy               -54.991375224290 Eh    ::
         :: -> isotropic ES            0.004576001029 Eh    ::
         :: -> anisotropic ES          0.008891987277 Eh    ::
         :: -> anisotropic XC          0.033582718717 Eh    ::
         :: -> dispersion             -0.043703180180 Eh    ::
         :: repulsion energy           0.967380512163 Eh    ::
         :: add. restraining           0.000000000000 Eh    ::
         :: total charge              -0.000000000000 e     ::
         :::::::::::::::::::::::::::::::::::::::::::::::::::::

           -------------------------------------------------
          |                Property Printout                |
           -------------------------------------------------

    * Orbital Energies and Occupations

         #    Occupation            Energy/Eh            Energy/eV
      -------------------------------------------------------------
         1        2.0000           -0.6477420             -17.6260
       ...           ...                  ...                  ...
        39        2.0000           -0.4358726             -11.8607
        40        2.0000           -0.4343244             -11.8186
        41        2.0000           -0.4333127             -11.7910
        42        2.0000           -0.4316184             -11.7449
        43        2.0000           -0.4243793             -11.5479
        44        2.0000           -0.4194013             -11.4125
        45        2.0000           -0.4187856             -11.3957
        46        2.0000           -0.4061833             -11.0528
        47        2.0000           -0.4038635             -10.9897
        48        2.0000           -0.4021410             -10.9428
        49        2.0000           -0.3875593             -10.5460
        50        2.0000           -0.3847419             -10.4694
        51        2.0000           -0.3734278             -10.1615 (HOMO)
        52                         -0.2493734              -6.7858 (LUMO)
        53                         -0.2301022              -6.2614
        54                         -0.1779115              -4.8412
        55                         -0.1469150              -3.9978
        56                         -0.1171554              -3.1880
        57                         -0.0506507              -1.3783
        58                          0.0387939               1.0556
        59                          0.0651416               1.7726
        60                          0.0652932               1.7767
        61                          0.0718371               1.9548
        62                          0.0965269               2.6266
       ...                                ...                  ...
       102                          1.4293102              38.8935
      -------------------------------------------------------------
                  HL-Gap            0.1240545 Eh            3.3757 eV
             Fermi-level           -0.3114006 Eh           -8.4736 eV

     #   Z          covCN         q      C6AA      α(0)
     1   6 C        3.913     0.042    19.813     6.327
     2   6 C        3.822    -0.054    21.534     6.604
     3   6 C        3.861    -0.011    20.728     6.475
     4   6 C        3.815    -0.058    21.611     6.617
     5   6 C        3.861    -0.011    20.727     6.475
     6   6 C        3.822    -0.054    21.525     6.602
     7   6 C        3.815    -0.058    21.610     6.616
     8   6 C        3.861    -0.011    20.727     6.475
     9   6 C        3.822    -0.054    21.526     6.602
    10   6 C        3.815    -0.058    21.611     6.617
    11   6 C        1.987    -0.049    32.365     9.187
    12   6 C        1.981    -0.056    32.574     9.217
    13   6 C        2.969     0.038    27.156     8.548
    14   6 C        2.937    -0.036    28.902     8.817
    15   6 C        2.969     0.014    27.706     8.634
    16   6 C        2.923    -0.035    28.869     8.811
    17   6 C        2.916    -0.030    28.760     8.794
    18   6 C        2.927    -0.032    28.810     8.802
    19   6 C        2.896    -0.030    28.756     8.792
    20   6 C        2.837    -0.086    30.142     8.997
    21   1 H        0.924     0.030     2.586     2.515
    22   1 H        0.924     0.030     2.586     2.515
    23   1 H        0.924     0.021     2.725     2.581
    24   1 H        0.924     0.028     2.620     2.531
    25   1 H        0.924     0.028     2.621     2.532
    26   1 H        0.924     0.021     2.722     2.580
    27   1 H        0.924     0.030     2.583     2.514
    28   1 H        0.924     0.030     2.582     2.513
    29   1 H        0.924     0.028     2.621     2.532
    30   1 H        0.924     0.028     2.620     2.531
    31   1 H        0.924     0.021     2.722     2.580
    32   1 H        0.924     0.030     2.584     2.514
    33   1 H        0.924     0.030     2.583     2.513
    34   1 H        0.924     0.028     2.620     2.531
    35   1 H        0.924     0.028     2.620     2.531
    36   1 H        0.925     0.030     2.587     2.515
    37   1 H        0.926     0.032     2.564     2.504
    38   1 H        0.926     0.027     2.635     2.539
    39   1 H        0.926     0.029     2.593     2.518
    40   1 H        0.925     0.032     2.555     2.500
    41   1 H        0.926     0.035     2.517     2.481
    42   1 H        0.926     0.038     2.474     2.460

 Mol. C6AA /au·bohr⁶  :      18357.869624
 Mol. C8AA /au·bohr⁸  :     437240.512402
 Mol. α(0) /au        :        209.538033


Wiberg/Mayer (AO) data.
largest (>0.10) Wiberg bond orders for each atom

 ---------------------------------------------------------------------------
     #   Z sym  total        # sym  WBO       # sym  WBO       # sym  WBO
 ---------------------------------------------------------------------------
     1   6 C    3.991 --    11 C    1.032     2 C    0.968     9 C    0.965
                             6 C    0.965
     2   6 C    3.996 --     3 C    0.996    21 H    0.976    22 H    0.976
                             1 C    0.968
     3   6 C    3.997 --    10 C    0.998     4 C    0.998     2 C    0.996
                            23 H    0.968
     4   6 C    3.998 --     5 C    0.998     3 C    0.998    25 H    0.976
                            24 H    0.976
     5   6 C    3.996 --     4 C    0.998     7 C    0.998     6 C    0.996
                            26 H    0.967
     6   6 C    3.992 --     5 C    0.996    28 H    0.976    27 H    0.976
                             1 C    0.965
     7   6 C    3.998 --     5 C    0.998     8 C    0.998    29 H    0.976
                            30 H    0.976
     8   6 C    3.996 --    10 C    0.998     7 C    0.998     9 C    0.996
                            31 H    0.967
     9   6 C    3.993 --     8 C    0.996    33 H    0.976    32 H    0.976
                             1 C    0.965
    10   6 C    3.998 --     8 C    0.998     3 C    0.998    35 H    0.976
                            34 H    0.976
    11   6 C    3.946 --    12 C    2.735     1 C    1.032
    12   6 C    3.975 --    11 C    2.735    13 C    1.109
    13   6 C    3.989 --    14 C    1.378    18 C    1.358    12 C    1.109
    14   6 C    3.986 --    15 C    1.390    13 C    1.378    36 H    0.969
    15   6 C    3.990 --    14 C    1.390    16 C    1.366    19 C    1.089
    16   6 C    3.963 --    17 C    1.451    15 C    1.366    37 H    0.966
    17   6 C    3.992 --    16 C    1.451    18 C    1.444    38 H    0.970
    18   6 C    3.987 --    17 C    1.444    13 C    1.358    39 H    0.971
    19   6 C    3.990 --    20 C    1.903    15 C    1.089    40 H    0.965
    20   6 C    3.992 --    19 C    1.903    41 H    0.978    42 H    0.973
    21   1 H    0.999 --     2 C    0.976
    22   1 H    0.999 --     2 C    0.976
    23   1 H    0.999 --     3 C    0.968
    24   1 H    0.999 --     4 C    0.976
    25   1 H    0.999 --     4 C    0.976
    26   1 H    0.998 --     5 C    0.967
    27   1 H    0.999 --     6 C    0.976
    28   1 H    0.999 --     6 C    0.976
    29   1 H    0.999 --     7 C    0.976
    30   1 H    0.999 --     7 C    0.976
    31   1 H    0.998 --     8 C    0.967
    32   1 H    0.999 --     9 C    0.976
    33   1 H    0.999 --     9 C    0.976
    34   1 H    0.999 --    10 C    0.976
    35   1 H    0.999 --    10 C    0.976
    36   1 H    0.999 --    14 C    0.969
    37   1 H    0.999 --    16 C    0.966
    38   1 H    0.998 --    17 C    0.970
    39   1 H    0.999 --    18 C    0.971
    40   1 H    0.999 --    19 C    0.965
    41   1 H    0.998 --    20 C    0.978
    42   1 H    0.999 --    20 C    0.973
 ---------------------------------------------------------------------------

Topologies differ in bond orders
Writing corrected topology to xtbtopo.sdf

molecular dipole:
                 x           y           z       tot (Debye)
 q only:       -0.350      -0.109       0.017
   full:       -0.325      -0.101       0.015       0.865
molecular quadrupole (traceless):
                xx          xy          yy          xz          yz          zz
 q only:        1.516       0.604      -0.176       0.097      -1.060      -1.340
  q+dip:        6.278       2.564      -0.535       0.519      -4.723      -5.743
   full:        2.955       1.269      -0.172       0.216      -2.374      -2.783

           -------------------------------------------------
          |                Geometry Summary                 |
           -------------------------------------------------

      molecular mass/u    :      262.3894145
   center of mass at/Å    :        0.3561265       0.1368722       0.0025895
  moments of inertia/u·Å² :        0.5052261E+03   0.3890876E+04   0.4099654E+04
rotational constants/cm⁻¹ :        0.3336651E-01   0.4332605E-02   0.4111965E-02

 * 42 selected distances

     #   Z          #   Z                                           value/Å
     1   6 C        2   6 C                                       1.5352074
     2   6 C        3   6 C                                       1.5276993
     3   6 C        4   6 C                                       1.5282140
     4   6 C        5   6 C                                       1.5281915
     1   6 C        6   6 C                                       1.5358873 (max)
     5   6 C        6   6 C                                       1.5276950
     5   6 C        7   6 C                                       1.5282036
     7   6 C        8   6 C                                       1.5282067
     1   6 C        9   6 C                                       1.5357818
     8   6 C        9   6 C                                       1.5276882
     3   6 C       10   6 C                                       1.5282116
     8   6 C       10   6 C                                       1.5281915
    11   6 C       12   6 C                                       1.2032678
    13   6 C       14   6 C                                       1.3918628
    14   6 C       15   6 C                                       1.3929725
    15   6 C       16   6 C                                       1.3965391
    16   6 C       17   6 C                                       1.3824547
    13   6 C       18   6 C                                       1.3949596
    17   6 C       18   6 C                                       1.3824123
    19   6 C       20   6 C                                       1.3273440
     2   6 C       21   1 H                                       1.0927772
     2   6 C       22   1 H                                       1.0927767
     3   6 C       23   1 H                                       1.0962554
     4   6 C       24   1 H                                       1.0925502
     4   6 C       25   1 H                                       1.0927052
     5   6 C       26   1 H                                       1.0962555
     6   6 C       27   1 H                                       1.0927078
     6   6 C       28   1 H                                       1.0927143
     7   6 C       29   1 H                                       1.0927124
     7   6 C       30   1 H                                       1.0925377
     8   6 C       31   1 H                                       1.0962562
     9   6 C       32   1 H                                       1.0927144
     9   6 C       33   1 H                                       1.0927219
    10   6 C       34   1 H                                       1.0925512
    10   6 C       35   1 H                                       1.0927050
    14   6 C       36   1 H                                       1.0813920
    16   6 C       37   1 H                                       1.0787716
    17   6 C       38   1 H                                       1.0807584
    18   6 C       39   1 H                                       1.0801376
    19   6 C       40   1 H                                       1.0837482
    20   6 C       41   1 H                                       1.0766434
    20   6 C       42   1 H                                       1.0765130 (min)

 * 2 distinct bonds (by element types)

   Z      Z             #   av. dist./Å        max./Å        min./Å
   1 H    6 C          22     1.0890412     1.0962562     1.0765130
   6 C    6 C          20     1.4615495     1.5358873     1.2032678


optimized geometry written to: xtbopt.sdf


           -------------------------------------------------
          | TOTAL ENERGY              -54.024042991894 Eh   |
          | GRADIENT NORM               0.000120948415 Eh/α |
          | HOMO-LUMO GAP               3.375693777226 eV   |
           -------------------------------------------------

------------------------------------------------------------------------
 * finished run on 2023/07/25 at 15:50:39.214     
------------------------------------------------------------------------
 total:
 * wall-time:     0 d,  0 h,  0 min,  6.878 sec
 *  cpu-time:     0 d,  0 h,  0 min, 49.262 sec
 * ratio c/w:     7.162 speedup
 SCF:
 * wall-time:     0 d,  0 h,  0 min,  0.788 sec
 *  cpu-time:     0 d,  0 h,  0 min,  5.722 sec
 * ratio c/w:     7.266 speedup
 ANC optimizer:
 * wall-time:     0 d,  0 h,  0 min,  5.927 sec
 *  cpu-time:     0 d,  0 h,  0 min, 42.364 sec
 * ratio c/w:     7.148 speedup

