42
 energy: -54.023254374172 gnorm: 0.043617525789 xtb: 6.6.0 (2ccbbd7)
C           -1.38790000000000       -0.19830000000000       -0.03730000000000
C           -2.33640000000000        0.83120000000000       -0.69450000000000
C           -3.79530000000000        0.35040000000000       -0.60350000000000
C           -3.92870000000000       -1.00070000000000       -1.32590000000000
C           -3.00480000000000       -2.04220000000000       -0.67230000000000
C           -1.54820000000000       -1.55440000000000       -0.76320000000000
C           -3.39210000000000       -2.20600000000000        0.80700000000000
C           -3.25590000000000       -0.86100000000000        1.54030000000000
C           -1.79860000000000       -0.37670000000000        1.44290000000000
C           -4.17850000000000        0.17440000000000        0.87550000000000
C            0.00990000000000        0.26610000000000       -0.12660000000000
C            1.14790000000000        0.64420000000000       -0.19920000000000
C            2.50300000000000        1.09370000000000       -0.28530000000000
C            3.52550000000000        0.35320000000000        0.31820000000000
C            4.86290000000000        0.77570000000000        0.24630000000000
C            5.14750000000000        1.96050000000000       -0.44700000000000
C            4.12710000000000        2.70240000000000       -1.05100000000000
C            2.80520000000000        2.26940000000000       -0.97030000000000
C            5.89220000000000       -0.05010000000000        0.90330000000000
C            7.20930000000000        0.19210000000000        0.94180000000000
H           -2.23850000000000        1.80940000000000       -0.20460000000000
H           -2.06340000000000        0.98590000000000       -1.74720000000000
H           -4.45720000000000        1.08720000000000       -1.07190000000000
H           -4.96920000000000       -1.34570000000000       -1.28530000000000
H           -3.67260000000000       -0.88560000000000       -2.38620000000000
H           -3.10590000000000       -3.00270000000000       -1.18970000000000
H           -0.87880000000000       -2.30590000000000       -0.32310000000000
H           -1.25490000000000       -1.46130000000000       -1.81770000000000
H           -2.74980000000000       -2.95810000000000        1.28140000000000
H           -4.42300000000000       -2.57240000000000        0.88560000000000
H           -3.53520000000000       -0.98360000000000        2.59270000000000
H           -1.13570000000000       -1.09780000000000        1.94010000000000
H           -1.68680000000000        0.57030000000000        1.98810000000000
H           -5.22350000000000       -0.14960000000000        0.95540000000000
H           -4.10220000000000        1.13520000000000        1.39930000000000
H            3.26920000000000       -0.56180000000000        0.84840000000000
H            6.16510000000000        2.33020000000000       -0.53170000000000
H            4.36660000000000        3.61870000000000       -1.58430000000000
H            2.01720000000000        2.85090000000000       -1.44210000000000
H            5.52920000000000       -0.94590000000000        1.40480000000000
H            7.87220000000000       -0.49450000000000        1.46050000000000
H            7.67310000000000        1.05310000000000        0.47620000000000
42
 energy: -54.026287430592 gnorm: 0.012141955320 xtb: 6.6.0 (2ccbbd7)
C           -1.39090007750662       -0.19952707258030       -0.03689668496563
C           -2.32875998370039        0.82893045505404       -0.69252193079009
C           -3.77785891718330        0.34098803139704       -0.59647515327728
C           -3.92181820756150       -0.99845567449572       -1.32233149756299
C           -2.99658081435407       -2.02453937667147       -0.66442807086242
C           -1.54352596339333       -1.54882831584521       -0.76079940917794
C           -3.38696434718962       -2.20055317471967        0.80467333382510
C           -3.24487599997263       -0.85683061454303        1.52296072836709
C           -1.79311443822795       -0.37511408202884        1.43792780281521
C           -4.17094920741992        0.17345235447845        0.87293162246027
C           -0.00195870731310        0.25799963253715       -0.12356429878546
C            1.14110420814650        0.63653589963630       -0.19505591305478
C            2.49239899583813        1.08427976152928       -0.28078818275853
C            3.51689170177466        0.35138539288118        0.31811251072744
C            4.84775327865815        0.77242971626269        0.24614324341626
C            5.13208339324542        1.95208172016530       -0.44381520518859
C            4.11777588038810        2.68499943071968       -1.04141516703287
C            2.80111249004262        2.25937110868690       -0.96457779081547
C            5.87705202011398       -0.04157886733834        0.89578229261917
C            7.18489057474965        0.19806848085762        0.93430209392958
H           -2.22575845602602        1.79697129214445       -0.19183974950105
H           -2.04981165292275        0.96940364434023       -1.74177015811371
H           -4.43661139593739        1.07922185476601       -1.06531069385638
H           -4.95914036537958       -1.34254888439295       -1.27304669281238
H           -3.66060745964988       -0.88194248481156       -2.37815085076369
H           -3.09411905234933       -2.98422760083939       -1.18231707626320
H           -0.87611133338427       -2.28984868478972       -0.30941346216501
H           -1.25331283462893       -1.44111856056882       -1.81083145164667
H           -2.74151330682553       -2.94715273320565        1.27648283881208
H           -4.41798477735113       -2.55870584693671        0.87884573766954
H           -3.52073242818528       -0.97819230060874        2.57555001751678
H           -1.12920157417357       -1.09978019761421        1.92001856627149
H           -1.68224106472685        0.57615819549407        1.96816683371590
H           -5.21119674738806       -0.15691254808702        0.94790851930088
H           -4.08873248119360        1.13180242132612        1.39393658857242
H            3.26775547106181       -0.55942325943182        0.84671943895908
H            6.14763267666381        2.31335538942682       -0.52360750414800
H            4.35823196370000        3.59637092032064       -1.57171061835442
H            2.01605723313994        2.83709544740575       -1.43369111544036
H            5.50739356915513       -0.93129289738172        1.39269323829344
H            7.85035025232209       -0.47875197008476        1.44764667966066
H            7.64589788494460        1.05432399754596        0.47145659040456
42
 energy: -54.026741831189 gnorm: 0.003926336535 xtb: 6.6.0 (2ccbbd7)
C           -1.38855423248238       -0.19951010735635       -0.03652410662695
C           -2.32228211958456        0.82831123849011       -0.69146060222299
C           -3.76898994893841        0.34430356713542       -0.59725917948969
C           -3.90942828825430       -0.99459909296264       -1.31903841548615
C           -2.98810991335466       -2.02266529808359       -0.66524929325521
C           -1.53910014574186       -1.54607833222677       -0.75962542757925
C           -3.37667983878997       -2.19347251148158        0.80209998580768
C           -3.23662730744881       -0.85428444279193        1.52339039404017
C           -1.78840344439377       -0.37403975595738        1.43592734728221
C           -4.15791734476319        0.17411483487281        0.87009159354035
C           -0.00677673916941        0.25465164833292       -0.12207830058593
C            1.13507208467540        0.63104320191054       -0.19278469099304
C            2.48113080825192        1.07694653372129       -0.27778970328050
C            3.50572373912098        0.34692710450062        0.31932522757202
C            4.83275675462299        0.76761655703774        0.24707252234776
C            5.11809260139164        1.94636523701497       -0.44203915768578
C            4.10595405811090        2.67538967112029       -1.03698271114382
C            2.79169886223126        2.25272754608011       -0.96170318492780
C            5.86116136017907       -0.04086090722733        0.89314345687140
C            7.16554020828918        0.20094150428227        0.92970444135044
H           -2.21645013156212        1.79160377841978       -0.18716418232103
H           -2.04036084238764        0.96321253068714       -1.73825080641580
H           -4.42597417837270        1.08493615320507       -1.06722157248077
H           -4.94483185938267       -1.33780466232941       -1.26553660842839
H           -3.64858751245372       -0.87833669878269       -2.37318885024414
H           -3.08326595869451       -2.98313089658880       -1.18429919555075
H           -0.87247745000302       -2.28195893613110       -0.30426636393729
H           -1.24950846819216       -1.43235970717135       -1.80679547036908
H           -2.73250107878476       -2.93901770644734        1.27322978924473
H           -4.40738303697945       -2.54723251922573        0.87392337987839
H           -3.51050519049248       -0.97485515341564        2.57763112304503
H           -1.12407046237405       -1.09912813158021        1.91148223920124
H           -1.67713400188895        0.57821408015568        1.95957552861033
H           -5.19545330141043       -0.15904579380822        0.94236041799150
H           -4.07578655931022        1.13089510638327        1.39028988424827
H            3.26068652550358       -0.56286985600442        0.84778117030215
H            6.13413597183808        2.30026443156825       -0.51704993803609
H            4.34562198849282        3.58518808528667       -1.56643494916098
H            2.00544041295883        2.82637837327861       -1.42854433999774
H            5.48637009920466       -0.92807757643440        1.38773946800868
H            7.83694853487034       -0.46830554516612        1.43892784969098
H            7.62082534546853        1.05750244768943        0.46549123118585
42
 energy: -54.026806629666 gnorm: 0.001991819719 xtb: 6.6.0 (2ccbbd7)
C           -1.38710692827911       -0.19959854573776       -0.03624873847871
C           -2.31809825357245        0.83013327687926       -0.69197329996644
C           -3.76420065925199        0.34526475976612       -0.59725956373465
C           -3.90530052767621       -0.99329784681029       -1.32025978725239
C           -2.98409179115782       -2.02109057294151       -0.66509416461543
C           -1.53484615644005       -1.54618663840695       -0.76006470607367
C           -3.37278367526386       -2.19317839120039        0.80243050899598
C           -3.23260084817086       -0.85309405939700        1.52274660584138
C           -1.78441205273514       -0.37325803980224        1.43707604888976
C           -4.15402787787142        0.17626621173510        0.87034293788993
C           -0.00804916897421        0.25380239911465       -0.12164437185108
C            1.13334483476521        0.62948950015332       -0.19216477430879
C            2.47657850248586        1.07486231265011       -0.27721791444163
C            3.50002575491588        0.34423534383844        0.32018398881911
C            4.82626836507666        0.76512818560653        0.24779186012660
C            5.11187946728610        1.94492941587107       -0.44182661881387
C            4.09964156087183        2.67416307149297       -1.03694781894144
C            2.78566751794639        2.25116398189242       -0.96155955781454
C            5.85378398858143       -0.04371541924462        0.89376478336821
C            7.15815647300779        0.20043700344456        0.92858637159214
H           -2.21100294779021        1.79316087295483       -0.18768144377325
H           -2.03492849750801        0.96489577751475       -1.73832238161238
H           -4.42136209661825        1.08581813847915       -1.06724285628693
H           -4.94075796089727       -1.33622072015043       -1.26668172301310
H           -3.64419609456839       -0.87705859226307       -2.37442219526655
H           -3.07990814179927       -2.98161123268249       -1.18405154496535
H           -0.86767857999762       -2.28131765301929       -0.30456662503399
H           -1.24427868480207       -1.43184201383163       -1.80677362153115
H           -2.72868369480643       -2.93883863997424        1.27364777678087
H           -4.40360481462611       -2.54655918513783        0.87400174744903
H           -3.50718618993088       -0.97380037817083        2.57685092632729
H           -1.11945526895228       -1.09795912397984        1.91208299984474
H           -1.67210195361929        0.57906968438957        1.96012652656963
H           -5.19158177186680       -0.15679791293688        0.94230234290063
H           -4.07164444815624        1.13308200788194        1.39058399415569
H            3.25503028415828       -0.56602631464899        0.84887027089987
H            6.12883181620976        2.29595064439897       -0.51481507290145
H            4.33817323416954        3.58441282459632       -1.56677515719708
H            1.99678065399208        2.82231392568384       -1.42722392448531
H            5.47730648885552       -0.93081994498142        1.38825487803915
H            7.83369532510441       -0.46558614781467        1.43660597430113
H            7.60872481790550        1.05917803478847        0.46246731956804
42
 energy: -54.026821617593 gnorm: 0.001567361575 xtb: 6.6.0 (2ccbbd7)
C           -1.38475615028352       -0.19963671250314       -0.03587534343976
C           -2.31457876453968        0.83114812577952       -0.69215445241494
C           -3.76102404521775        0.34733715646640       -0.59807873522373
C           -3.90128032317560       -0.99210801953063       -1.32122836300228
C           -2.98081800186626       -2.02152041144187       -0.66573491921517
C           -1.53154165017301       -1.54658207039857       -0.75999709739822
C           -3.36945084856062       -2.19279453896980        0.80270153412569
C           -3.22967132221015       -0.85235032563148        1.52405967816875
C           -1.78133026329599       -0.37303136426044        1.43806471295370
C           -4.15024793031806        0.17817613661722        0.87046029854249
C           -0.00787286570249        0.25344029516508       -0.12150055877379
C            1.13345707415338        0.62881960389222       -0.19210577574770
C            2.47388277818731        1.07439373661743       -0.27731761804485
C            3.49517253353248        0.34197023754257        0.32084197757745
C            4.82096550510673        0.76318948557807        0.24838040336210
C            5.10606554306595        1.94428959243385       -0.44185548925252
C            4.09413435176411        2.67467413562155       -1.03766386489673
C            2.78026492240518        2.25095404793228       -0.96206379279232
C            5.84701436733472       -0.04751155264463        0.89535217171588
C            7.15137741021975        0.19881403126749        0.92844803787832
H           -2.20562915139363        1.79454830550136       -0.18831567353064
H           -2.02956986800903        0.96650065435150       -1.73824596241936
H           -4.41876492267992        1.08746015891920       -1.06797923266480
H           -4.93709093553989       -1.33471452479375       -1.26967006815428
H           -3.63844082288318       -0.87552699049797       -2.37518540075222
H           -3.07800602205382       -2.98208519024641       -1.18443410489094
H           -0.86325526921123       -2.28125381149322       -0.30466838605972
H           -1.23902536919442       -1.43218302438690       -1.80646523673412
H           -2.72445575768033       -2.93807460206267        1.27389698449345
H           -4.40000120051962       -2.54727451601866        0.87483945583404
H           -3.50567538862150       -0.97333856907466        2.57780214035774
H           -1.11529312491007       -1.09718356877603        1.91310067549549
H           -1.66713428985795        0.57935185769293        1.96122481158485
H           -5.18847797379720       -0.15307936365018        0.94314045216186
H           -4.06613835157312        1.13522850570256        1.39053639558753
H            3.24832080320373       -0.56869618022652        0.84937007758761
H            6.12382387186100        2.29316689857751       -0.51313068741462
H            4.33151104006304        3.58560812405221       -1.56790125278935
H            1.98760427342159        2.81882452624817       -1.42632857046421
H            5.46885430892416       -0.93464070101634        1.38959999142505
H            7.83145359679385       -0.46431321713471        1.43469151477247
H            7.59562823323109        1.05990363879948        0.45928927245182
42
 energy: -54.026825181683 gnorm: 0.000239384430 xtb: 6.6.0 (2ccbbd7)
C           -1.38534324377247       -0.19986942125132       -0.03583991814771
C           -2.31553569670502        0.83064200610880       -0.69202765134316
C           -3.76181377278331        0.34668322492621       -0.59786332886037
C           -3.90205415269694       -0.99242641420900       -1.32122653417634
C           -2.98179962206927       -2.02156598096154       -0.66546140350689
C           -1.53254637276048       -1.54682697828986       -0.75977107429903
C           -3.37029644839226       -2.19306447102945        0.80278170292846
C           -3.23058591989369       -0.85262770076663        1.52375729419687
C           -1.78229272158505       -0.37338321158172        1.43794064477710
C           -4.15104077116649        0.17794742814243        0.87052114579137
C           -0.00774450591923        0.25365791165766       -0.12159632738576
C            1.13348865719709        0.62928941789363       -0.19226927702870
C            2.47490408704625        1.07524452442885       -0.27777565246253
C            3.49641436420138        0.34287649712899        0.32046605840299
C            4.82246912501743        0.76397811035214        0.24817380966364
C            5.10737393621957        1.94466104902143       -0.44176251046705
C            4.09582267095073        2.67510444542034       -1.03755321456799
C            2.78179696356793        2.25167489963928       -0.96225777221098
C            5.84868227205650       -0.04693569226410        0.89494367753329
C            7.15304720529031        0.19832307128433        0.92836998040157
H           -2.20705267018010        1.79412241675206       -0.18813862626689
H           -2.03094652939110        0.96596143173886       -1.73828766995027
H           -4.41947201015693        1.08672173123180       -1.06773197082538
H           -4.93785781698362       -1.33505334221015       -1.27020100936531
H           -3.63866180519273       -0.87567691519522       -2.37501139833142
H           -3.07893355204794       -2.98202676416011       -1.18411471463364
H           -0.86464919359948       -2.28182333351625       -0.30427786434918
H           -1.24030233443362       -1.43278366860749       -1.80640280653270
H           -2.72499827593844       -2.93810351885582        1.27391276102557
H           -4.40071870966218       -2.54780536328285        0.87509042970137
H           -3.50651414775519       -0.97354237665312        2.57740668085519
H           -1.11664435432514       -1.09785790034263        1.91314272444687
H           -1.66844154994672        0.57893981438818        1.96138277810435
H           -5.18935408461964       -0.15289348955080        0.94351088619170
H           -4.06637118238460        1.13502800592607        1.39042370671371
H            3.24901242605690       -0.56748635894325        0.84865015875517
H            6.12483950829773        2.29450765177276       -0.51365864788347
H            4.33385084276931        3.58582450188937       -1.56749070313090
H            1.98979744174371        2.82007906846838       -1.42669534815679
H            5.47045631029695       -0.93362579016360        1.38938732195523
H            7.83199289377027       -0.46509038764134        1.43539006261058
H            7.59802273987959        1.05910187130467        0.46006359982743
42
 energy: -54.026822621228 gnorm: 0.001334203901 xtb: 6.6.0 (2ccbbd7)
C           -1.38591908854490       -0.20008566353496       -0.03581030030362
C           -2.31648533557599        0.83015145261330       -0.69190187164479
C           -3.76258951515098        0.34603401090955       -0.59764343283028
C           -3.90281939248461       -0.99273463360665       -1.32123646121234
C           -2.98276537745816       -2.02159540069647       -0.66519364839047
C           -1.53354002596465       -1.54705408812629       -0.75955834004736
C           -3.37111635488147       -2.19333753284392        0.80285991203100
C           -3.23148337254256       -0.85290007848918        1.52344623711600
C           -1.78324460314202       -0.37372257162116        1.43781248006895
C           -4.15182550664535        0.17773001602432        0.87058918083920
C           -0.00761862847165        0.25388787637959       -0.12168146392987
C            1.13352046160705        0.62975156670438       -0.19240487676584
C            2.47591712983764        1.07605200776624       -0.27821998077493
C            3.49764875975030        0.34375659954760        0.32011516020157
C            4.82395815386217        0.76475300355522        0.24797545384840
C            5.10865639066630        1.94501939924516       -0.44168230983598
C            4.09747975950695        2.67550772938607       -1.03745131996210
C            2.78330697920578        2.25235413430419       -0.96244450976089
C            5.85035261380298       -0.04638873604626        0.89449734502765
C            7.15471135499773        0.19782036979286        0.92823438542533
H           -2.20847277323014        1.79371361683483       -0.18796111163299
H           -2.03232011137697        0.96544189619690       -1.73833271440730
H           -4.42016849433688        1.08598537871588       -1.06747502049173
H           -4.93861369241428       -1.33538459891446       -1.27070742005758
H           -3.63890481996562       -0.87582270759324       -2.37485895704963
H           -3.07984663449060       -2.98194945958559       -1.18380217512737
H           -0.86602274149859       -2.28237574753041       -0.30391191653696
H           -1.24157570966926       -1.43335576124804       -1.80635610208814
H           -2.72552554606422       -2.93814587523955        1.27392764254484
H           -4.40141625058699       -2.54832479570129        0.87533000717689
H           -3.50733569035808       -0.97374576344613        2.57700019588349
H           -1.11797707269238       -1.09851340600844        1.91318270458404
H           -1.66974453964652        0.57854370708825        1.96153496669292
H           -5.19021394104322       -0.15272646770492        0.94387105357789
H           -4.06662580858367        1.13483685275705        1.39032979389006
H            3.24972321718243       -0.56630624436457        0.84796671499468
H            6.12583409679980        2.29579918476266       -0.51419799912716
H            4.33613202451928        3.58601450040385       -1.56710410959186
H            1.99194476657999        2.82127347481628       -1.42703769445271
H            5.47207447146072       -0.93262095833155        1.38918193754992
H            7.83253211108919       -0.46579418227491        1.43613291295097
H            7.60037873595142        1.05835789510381        0.46088565161810
42
 energy: -54.026825365434 gnorm: 0.000160158387 xtb: 6.6.0 (2ccbbd7)
C           -1.38538732737272       -0.20006791983124       -0.03575325025825
C           -2.31547984055833        0.83045503106200       -0.69199163448737
C           -3.76174172833304        0.34660081743882       -0.59787566883166
C           -3.90191852333481       -0.99248261710931       -1.32115370322028
C           -2.98182838347773       -2.02164696369566       -0.66534804917508
C           -1.53256098684436       -1.54703534200304       -0.75956413928014
C           -3.37044017505110       -2.19300652694836        0.80280940627308
C           -3.23062023446879       -0.85264928020579        1.52376893420061
C           -1.78230193148721       -0.37355566966961        1.43798694151624
C           -4.15091774395465        0.17792283520457        0.87045713738116
C           -0.00776868862529        0.25354555603284       -0.12170261551740
C            1.13342913030195        0.62936563701191       -0.19255275765400
C            2.47487427808376        1.07571599116710       -0.27797235578685
C            3.49628841552006        0.34312767364945        0.32020252997368
C            4.82237959745652        0.76408730862146        0.24810377202946
C            5.10736216196986        1.94474084286302       -0.44160067471192
C            4.09601137300962        2.67535251990594       -1.03742749514818
C            2.78190559470141        2.25213840692394       -0.96236044675237
C            5.84835971633808       -0.04674566199300        0.89527345489153
C            7.15275134635721        0.19829423854712        0.92882690394600
H           -2.20691109432211        1.79387922627041       -0.18806927469320
H           -2.03078969370903        0.96566920067128       -1.73821073459184
H           -4.41937614897808        1.08664331374141       -1.06779254728591
H           -4.93773588853714       -1.33506088164744       -1.27061608073752
H           -3.63802520802429       -0.87562635211435       -2.37477350640787
H           -3.07899932046889       -2.98212671026404       -1.18397628982433
H           -0.86479174066864       -2.28197573278199       -0.30384886873265
H           -1.24018923414256       -1.43308235315716       -1.80614297640360
H           -2.72499837567115       -2.93789531310397        1.27391888927055
H           -4.40079175580068       -2.54786946157801        0.87520210393115
H           -3.50660009314818       -0.97351695733447        2.57741902616502
H           -1.11674338808024       -1.09815029488368        1.91307756907915
H           -1.66833749590259        0.57873261801060        1.96141343473752
H           -5.18932035213063       -0.15250658048520        0.94366806446689
H           -4.06575224415220        1.13501710178281        1.39019558918101
H            3.24847572572892       -0.56714762275479        0.84820003509119
H            6.12479240936064        2.29482652313967       -0.51343572469358
H            4.33437432182424        3.58603898763815       -1.56717050017186
H            1.99003141252447        2.82057168904522       -1.42687472970442
H            5.46977948043108       -0.93348717581903        1.38925669884347
H            7.83179588607256       -0.46568527599467        1.43485232873235
H            7.59771674756402        1.05849517464709        0.45948120436024
42
 energy: -54.026825297272 gnorm: 0.000254672409 xtb: 6.6.0 (2ccbbd7)
C           -1.38519302595020       -0.20014269752666       -0.03572177426667
C           -2.31520702988259        0.83043105477762       -0.69202157219247
C           -3.76150865657225        0.34663863060956       -0.59793907071545
C           -3.90160044613248       -0.99247428434313       -1.32127504059057
C           -2.98164998337119       -2.02173595265516       -0.66532146799426
C           -1.53233486970783       -1.54716772842031       -0.75946879132022
C           -3.37025296225078       -2.19302387762672        0.80289414681772
C           -3.23045897972854       -0.85260182877413        1.52383429627728
C           -1.78208667874904       -0.37358865063583        1.43804342047898
C           -4.15063733144553        0.17810934709291        0.87046996220019
C           -0.00774074465382        0.25358043993967       -0.12164248961195
C            1.13337438809874        0.62956535320938       -0.19247889915482
C            2.47463701836107        1.07583660664316       -0.27817469853113
C            3.49588732852125        0.34321741708975        0.32019915679457
C            4.82197842346149        0.76408695518557        0.24821034474039
C            5.10707823422868        1.94484382313928       -0.44145265499743
C            4.09574458298477        2.67555932963695       -1.03734968134458
C            2.78162594090790        2.25234827221828       -0.96244899655864
C            5.84788075899363       -0.04735406488127        0.89473139706290
C            7.15237361520990        0.19738285769843        0.92769315597232
H           -2.20654045671717        1.79385431202952       -0.18812888048413
H           -2.03040724440962        0.96563054484571       -1.73820670114949
H           -4.41915539324478        1.08667532300000       -1.06789296956746
H           -4.93743804811810       -1.33501613069119       -1.27083634432851
H           -3.63761671413752       -0.87563661392808       -2.37489412421511
H           -3.07889701257437       -2.98224931625594       -1.18391717059937
H           -0.86459182674966       -2.28206502359934       -0.30365583426651
H           -1.23982123128054       -1.43330469204167       -1.80601135769164
H           -2.72490650766267       -2.93798018729501        1.27407111316102
H           -4.40064122219706       -2.54779950697992        0.87525192094502
H           -3.50651483151200       -0.97343683308248        2.57748943951890
H           -1.11653908232602       -1.09819660223303        1.91311895637462
H           -1.66800356887275        0.57867544027677        1.96147656763056
H           -5.18907118948227       -0.15222631413628        0.94371178608772
H           -4.06540058885914        1.13523902873132        1.39017277330843
H            3.24794975800131       -0.56716869365002        0.84806376796963
H            6.12456265212625        2.29477627437504       -0.51321497873550
H            4.33416096701937        3.58630964363383       -1.56703404214305
H            1.98968480668126        2.82082440474283       -1.42686214846342
H            5.46897018121058       -0.93352376107549        1.38959212404642